Position Data

4000 atoms
2 atom types

0.00 17.85 xlo xhi
0.00 17.85 ylo yhi
0.00 17.85 zlo zhi

Atoms

48 1 1.1814343800000002 0.676502505 1.3558110300000001
44 1 0.8787822750000001 1.653839985 1.05634515
433 1 1.064893515 0.930604395 0.12751968600000002
845 1 2.2010121000000002 0.57560538 0.8622888750000002
519 1 1.8681453000000001 1.73932185 0.43464928500000005
81 1 2.0997847500000004 1.5369207 1.500772665
887 1 3.2482716000000003 1.5537871650000001 0.82575885
404 1 3.1944538500000004 0.13499651550000002 0.99674757
1243 1 3.9553279500000005 0.6731467050000001 0.588798315
844 1 4.7229672 1.248941295 1.2293062950000002
1606 1 5.1027795000000005 0.09442185900000001 1.35522912
1208 1 5.337739050000001 1.353099615 0.0352782045
1599 1 5.175250500000001 0.1350322155 0.297950415
1247 1 6.1692991500000005 1.1435959500000001 0.76695738
2045 1 6.757617300000001 1.7694151650000003 1.503314505
1568 1 6.224509200000001 0.03672298350000001 0.7317625350000001
2366 1 7.1900871 0.5114007150000001 1.14955428
1645 1 7.265556900000001 1.5579747750000001 0.55688073
2362 1 7.703774400000001 0.00697033575 0.27966309000000006
1605 1 8.081087700000001 1.347305505 1.6196019000000001
2001 1 8.30790765 0.91988904 0.71544942
2008 1 9.482152050000002 1.09404435 0.784445025
2834 1 10.538711400000002 1.09241643 0.50214192
2766 1 10.565379300000002 0.401833845 1.3444477200000002
2406 1 10.45419165 1.4194480650000003 1.74858957
1968 2 8.9777646 0.33859665 1.4554086750000002
2011 1 9.14867835 1.5569608950000002 1.777101375
2405 1 9.8579124 0.14793508800000002 0.46118331000000007
2404 1 11.89268745 1.4445755100000002 0.22148994000000002
2802 1 11.565729000000001 1.1814183150000002 1.3658302350000002
2814 1 11.5612665 0.0377654235 1.5641490900000001
2758 2 11.535794550000002 0.46741117500000007 0.535898055
3249 1 12.6560784 1.5861028050000001 1.484825475
3240 1 13.45813245 0.5183175900000001 0.615612585
3607 1 13.77739755 1.7621662800000002 0.7993140750000001
2772 1 13.71931365 0.676166925 1.73013624
2847 1 14.4207651 0.36052180500000003 0.007544159700000001
3248 1 15.25070085 0.8623906200000001 0.8765956500000001
42 1 16.0030962 1.418666235 0.31114335
3604 1 15.659697900000001 1.655432205 1.4829030300000001
3645 1 14.53063185 0.15756016500000003 1.20735258
3206 1 17.7911664 0.579812625 0.720327825
43 1 17.810373000000002 1.2960777900000002 1.7205722100000003
3643 1 16.6373424 1.02848487 1.192835175
117 1 17.209613400000002 1.5927804900000002 0.329976885
41 1 0.0691275165 2.38688415 0.5665233000000001
445 1 0.3356406900000001 2.6072602500000004 1.689932685
442 1 1.18357638 2.8327593 0.8144294550000001
518 1 0.261272235 3.3800046000000004 0.1265545365
1248 1 3.2704413000000003 3.15596925 1.356994485
488 1 2.5870719 2.4488950500000004 0.840965265
1281 1 3.4631142 3.385431 0.14352810150000003
121 1 2.2243777500000004 3.4875687 0.807332295
842 2 3.9566667000000004 2.3887227 1.4868835800000002
1282 1 4.6012659000000005 3.1715166000000004 1.0209129000000001
1318 1 5.256825 2.6965281000000005 0.07973202300000001
884 1 4.2310926 2.37421065 0.22205221500000002
1288 1 5.410335 2.0733846000000002 0.91372365
2086 1 6.307761600000001 2.7658575 1.435773675
1688 1 6.728307600000001 3.1576293000000004 0.26235751500000004
1646 1 6.358134300000001 2.1049255500000004 0.34765374000000004
1647 1 7.190997450000001 3.5389410000000003 1.1863002900000001
2479 1 8.780986200000001 1.9869906000000002 0.922664715
2408 1 8.48165955 3.2802588 1.204162785
2085 1 7.6791414 2.4866121000000003 0.859422165
2410 1 10.306804200000002 2.78365395 1.5503563950000003
2079 1 10.1348016 2.0735274 0.589458765
2809 1 10.6141812 3.2269944 0.496688745
2483 1 9.2758239 2.88511335 0.5351894100000001
2447 1 11.300299500000001 2.25693615 0.78020565
3242 1 11.385943800000002 3.39626595 1.3367043900000002
3278 1 12.395057850000002 2.6524029000000002 1.0106259450000001
2804 1 13.266637650000002 2.4231732000000004 1.640099055
2918 1 14.084970900000002 2.90139255 0.41172274500000006
2843 1 13.1776911 2.5177068000000005 0.1140727455
2959 1 12.555225900000002 3.3396814500000005 0.11946737250000002
2884 1 13.28930715 3.43639275 1.08243114
3644 1 14.801309250000001 1.96101885 0.865269825
3678 1 14.342100150000002 2.6263419 1.5941335200000002
3321 1 14.872370100000001 3.28431075 0.907356555
3282 1 15.748269600000002 2.4849520500000004 0.7483237650000001
3354 1 15.594991650000003 3.4133127000000005 0.07558404
128 1 16.804418400000003 2.6472264 0.8938923
523 1 1.21686306 3.8859271500000006 0.9149338800000001
165 1 0.27854211 3.6386511 1.67430501
527 1 1.20038394 4.94678835 1.5529553550000001
154 1 1.6982686350000002 4.6684354500000005 0.19178754
3759 1 0.552976935 4.553517150000001 0.393226575
123 1 2.27032365 4.70766975 1.13055474
886 1 2.8011291000000003 4.2049602 0.08397175500000001
921 1 3.9905281500000003 4.17252675 0.671236755
608 2 3.94061955 5.1559368 1.024249065
927 1 5.3954124 4.708116 0.9971170650000001
1721 1 5.552813700000001 3.6703884 0.47825326500000004
1286 1 5.38714785 3.79117935 1.637510805
2042 1 6.4318191 4.35491805 0.20507865
524 1 5.7287433000000005 5.26451835 0.1171418745
2517 2 7.9634562 5.217662100000001 1.506466815
1637 2 7.934200050000001 4.26249075 1.049421135
2441 2 8.7965157 4.015286100000001 0.41369874
1684 2 7.1591530500000005 5.005675500000001 0.8223941250000001
2475 2 8.10788055 4.968119100000001 0.266884275
2402 1 9.730249200000001 3.6514852500000003 1.228638705
1643 2 8.978282250000001 4.44616725 1.540167615
2478 2 9.083168850000002 5.30243175 0.8807957550000001
2131 1 10.53094665 4.243587600000001 0.8225369250000001
2841 1 11.675702850000002 4.06521255 0.45588900000000004
2486 1 11.895364950000001 5.009406150000001 1.21208997
3314 1 11.182953600000001 5.2232313 0.40770114
3286 1 12.354984600000002 3.9545247000000003 1.5059152500000001
3758 1 14.017765650000001 3.9519007500000005 0.311662785
2519 1 12.737331600000001 4.42981665 0.36480223500000003
3357 2 13.47748185 4.602586800000001 1.04811987
2960 1 14.2566522 5.276103000000001 0.0028913965500000005
2844 1 14.525990850000001 3.9629499 1.74738648
3359 1 15.29132745 4.364075100000001 0.8611839600000001
125 1 16.05441495 3.5797639500000002 1.1853363900000002
2958 1 14.5023396 5.13282105 1.0130946
3684 1 16.2980853 4.691801100000001 1.05020475
83 1 17.393736150000002 4.74818925 0.7951818
3688 1 17.07529215 3.6988234500000003 0.5297719350000001
122 1 0.010715444250000001 5.9730384 1.0496174850000002
3755 1 0.579909015 6.6830043 0.37144065000000004
922 1 1.0724637000000001 5.63433465 0.6331055850000001
136 1 0.8851904250000001 6.475319550000001 1.4120117550000002
1762 2 1.584507015 6.83192685 0.660080505
521 2 2.0426469000000003 5.79441345 1.13602755
168 2 3.1310149500000004 5.862796800000001 0.6841298100000001
1008 2 2.69540355 6.669527550000001 1.309277865
990 2 2.73802935 6.8037774 0.12996888450000002
3807 2 3.8547610500000005 6.6340953 1.3215550950000001
532 2 4.2039606 6.470642850000001 0.161710647
529 2 4.8550215 5.92263 1.3849458000000001
2208 2 7.027955550000001 6.111304500000001 1.50116001
1354 2 6.352779300000001 5.862189900000001 0.7335207600000001
1324 2 7.483969500000001 5.9985817500000005 0.42213465000000006
1724 1 7.903498050000001 7.1135284500000004 1.3502900250000003
1319 2 8.5096305 6.17975925 1.53208692
2529 1 10.216251150000002 6.806526300000001 1.2736617600000002
2127 1 10.33916625 6.888618450000001 0.1342361055
2087 1 10.291828050000001 5.701236450000001 1.326610215
2126 1 9.147107550000001 7.117705350000001 1.6027033050000001
2878 1 9.963048900000002 5.40924615 0.11787176100000002
2118 1 9.39640065 6.37485975 0.46131540000000004
2921 1 11.142327000000002 6.210300600000001 0.962995005
2159 1 12.251008350000001 6.501059250000001 0.5662394850000001
2488 1 11.81086305 6.07058865 1.75992432
2882 1 13.176352350000002 6.489974400000001 1.6779035700000002
2957 2 12.8122302 5.500316850000001 0.5489053500000001
3393 1 13.922732250000001 6.126816150000001 0.8107702050000001
3398 1 14.085167250000001 7.035042000000001 0.030314298
3399 1 14.231929950000001 6.72575505 1.7605722750000001
3284 1 15.58463865 5.4894640500000005 1.4353916850000001
3760 1 15.065667750000001 5.893945050000001 0.38798403000000004
3723 1 16.08629505 6.0394404 0.7154529900000001
124 1 17.3872566 6.8152014 0.5397732900000001
198 1 17.151529500000002 5.7521625 0.164710518
3324 1 17.063457600000003 6.64339515 1.5408280650000001
160 1 1.135083285 8.343000750000002 1.5565128600000002
601 2 1.7812247250000002 8.7517122 0.61254774
561 1 1.11081264 7.777994700000001 0.49592833500000005
163 1 0.091910007 7.3616791500000005 1.3814454150000002
201 1 0.083635818 8.4174174 1.004953215
166 2 2.36592825 7.8601582500000005 0.81204648
564 2 3.3571923000000004 8.766295650000002 0.9782139150000001
590 2 3.4847841000000006 7.505103900000001 0.571312455
1330 2 3.03466065 7.587321 1.7673713400000002
560 2 4.595250450000001 7.2444582 0.8005725000000001
283 2 4.2275047500000005 8.207412150000001 1.2001161900000001
1362 1 5.5679148000000005 8.67090525 0.566146665
1365 1 6.65346255 7.396986450000001 1.15063956
1366 1 5.567075850000001 7.6465116 1.1776091250000003
1320 1 8.4941367 7.25093775 0.32300289000000004
2165 1 7.39973535 7.400877750000001 0.20180496000000003
1729 1 7.444753050000001 8.323330050000001 1.1343550050000002
2164 1 8.03419575 8.4490119 0.05654130300000001
2124 1 8.6820258 8.1063633 1.318745505
2526 1 10.21571565 7.7956483500000004 1.6778946450000003
2203 1 9.1041069 8.8158294 0.5036413200000001
2163 1 9.468229050000001 7.728532350000001 0.08070895350000001
2206 1 9.55780035 8.830020150000001 1.58956749
2167 1 10.635922500000001 7.884184350000001 0.68233053
2523 1 11.7279855 7.827367800000001 0.9537540600000001
3001 1 10.8611181 8.776041750000001 1.390088385
3038 1 11.415199950000002 8.8160436 0.30213981
2568 1 11.21460165 7.2653784 1.755617115
3080 1 12.4725447 8.5638588 0.7264432350000001
3437 1 13.4375871 8.816775450000002 1.26434763
2964 1 12.987784950000002 7.873652850000001 1.705126605
2961 1 13.127050650000001 7.4216016 0.6550468050000001
2963 1 14.0803299 7.9238649 0.94166961
3040 1 13.369400100000002 8.4481908 0.019477384500000004
2924 1 14.810591250000002 7.148603700000001 0.951210435
3404 1 15.27483405 7.86426375 0.22267518
3762 1 14.604316650000001 8.844407250000001 1.6602338550000002
3800 1 15.872880450000002 7.178074050000001 0.8038319100000001
3764 1 15.4872312 8.85393915 1.069177515
3438 1 14.421461250000002 8.815329600000002 0.40093063500000004
164 1 16.834602750000002 7.6281261 1.03001283
3479 1 16.23555675 8.14036755 0.335703165
234 1 0.8270029950000001 8.9698392 0.253121925
202 1 1.03346859 9.733212300000002 1.492729455
3843 1 0.743250795 9.992751300000002 0.5463403050000001
237 1 1.710024645 9.724858500000002 0.18817113000000002
681 1 1.5570787050000001 10.67167605 0.9416071350000002
965 1 2.6898165 10.3980177 1.22056515
688 1 3.5638953000000004 9.9851472 0.6201696900000001
1045 1 5.0500863 9.817767750000002 1.0124787750000002
244 1 4.498914 10.629032400000002 0.57488067
643 1 4.4451498 9.29908245 0.165842565
1485 2 4.2363762000000005 9.10466025 1.7637799200000002
1005 1 6.6254559 9.04889685 1.1195055900000002
1804 1 6.1622127 10.02964725 1.10607882
1842 1 7.095446400000001 10.5465297 0.7082166000000001
1760 1 7.8041985 9.271397100000002 0.7749863100000001
2199 1 7.9952649000000005 10.202952900000001 0.10416099750000002
2166 1 8.5938468 9.399096000000002 1.5142422750000002
1368 1 7.17071985 10.02143625 1.6314703650000002
1764 1 8.07246615 10.400588100000002 1.2182089500000002
2605 1 8.92441095 10.07698545 0.59866401
2162 1 9.721395600000001 10.224230100000002 1.611192765
2639 1 10.212324150000002 9.334532550000002 0.68450109
2604 2 12.0325779 10.18601325 0.17029203450000002
2528 1 11.808203400000002 9.253939800000001 1.3739805450000002
2563 1 10.806407850000001 10.406228700000002 0.910480305
3041 1 14.091361200000001 9.9107841 1.3745053350000003
3044 1 13.055668500000001 9.5582109 0.633619665
3119 1 13.906613700000001 10.152294600000001 0.25637241
3083 1 14.953801800000003 9.72766095 0.51157386
3848 1 15.6618756 9.847845 1.7695311900000001
3842 1 16.049577600000003 9.95553405 0.58097823
3518 1 15.384700800000001 10.647935550000001 1.0621945950000002
3802 2 17.0536758 10.03675155 1.113113505
3441 1 17.67066105 9.368161950000001 0.5082037800000001
3841 1 16.624865250000003 9.183932100000002 0.0731584035
3805 1 16.63446855 9.097431 1.2733351050000001
242 1 0.4421802 11.111035950000002 0.9113995800000001
1127 1 1.5838662000000001 11.806704000000002 1.115712465
322 1 0.37377186 12.1749138 0.5177499600000001
325 1 1.114091685 11.1376503 0.09050896050000001
238 1 3.15200655 10.963362900000002 0.316825005
685 1 2.6179881000000003 11.5283154 1.1763739050000002
732 1 3.5100954000000004 12.374958750000001 1.0172607900000001
1084 1 2.7641439 12.436826850000003 0.32636940000000003
319 1 2.1117264000000002 11.4544878 0.20209591500000001
1047 1 4.7871558 10.9125975 1.75239519
1442 1 4.5633168 11.8267317 1.036922565
1042 1 3.6673717500000005 11.160052050000001 1.2602653350000002
1723 1 5.51013435 10.833789750000001 0.8330630700000001
1848 1 6.452453700000001 11.930065350000001 0.94223367
1408 1 5.40399825 11.986524900000003 0.405036135
1447 1 5.592048 11.71907835 1.6372377
1883 1 6.999377700000001 11.350957800000002 0.081106473
1811 1 8.52489225 11.115123600000002 0.29989606500000004
2202 1 8.0051538 12.13926735 0.1599301095
1771 1 8.53003305 11.39124525 1.330151655
1807 1 7.561759800000001 11.825767800000001 1.1020947
2209 1 7.2274293 11.038225800000001 1.6857307950000002
1803 1 9.442221600000002 11.33548185 0.814836435
2638 1 9.32767815 12.334689150000003 0.353606715
2602 1 9.503697 12.248652150000002 1.46231127
2168 1 10.380471150000002 11.4212154 1.52885607
3046 2 10.738381500000001 12.00707025 0.22322496000000003
2644 2 12.287618700000001 11.044669650000001 0.9903394200000001
2652 2 11.84959755 12.38420505 0.40092528000000005
2642 2 11.321737350000001 11.685609600000001 1.11597129
3123 2 12.946355100000002 12.340686750000001 1.251586665
3481 1 14.151604950000001 11.855184600000001 0.770829045
2680 2 13.401780000000002 10.837591800000002 0.914860695
2603 1 14.2001391 11.141898600000001 1.63303938
3124 1 14.731837050000001 10.764728100000001 0.231162855
3517 1 15.383701200000003 12.120756900000002 0.5784970800000001
3844 1 17.338294050000002 11.1018789 0.42685597500000005
3881 1 17.295168450000002 11.5090017 1.583810865
3882 1 16.3540629 11.420715600000001 0.8204074200000001
3888 1 16.627364250000003 12.330280200000002 1.494614415
3559 1 16.5327057 12.484736250000001 0.258091365
3883 1 0.027203935500000002 13.28602275 0.8603414400000001
721 1 1.7224839450000002 13.052098500000001 0.39151833
366 1 1.02450075 12.75245055 1.33951755
765 1 1.310984325 13.884604650000002 1.77749229
1085 1 2.16065325 12.69040395 1.2988570350000002
1125 1 2.2650043500000003 13.94632995 1.01040639
1159 2 2.9478382499999998 13.686558900000001 0.058363252500000004
1126 1 3.5722848000000003 13.906453050000001 1.0499762700000002
1046 1 4.362183 13.02477015 0.54856263
1087 1 4.563298950000001 13.59525615 1.443156435
1845 1 6.257995800000001 12.834150000000001 1.6318398600000001
1002 1 6.19011225 12.874651650000002 0.15505777350000002
1129 1 5.3999820000000005 12.86829705 1.04253996
1091 1 6.786641400000001 13.410526500000001 0.892276875
1527 1 5.6809767 13.744803450000001 1.578659355
1843 1 8.27824095 13.30090965 0.055766970000000006
1805 1 8.55566565 12.59558475 1.12372176
2282 1 7.487521650000001 14.128524900000002 0.068390133
1889 1 7.862925000000001 13.6094469 1.20820224
1847 1 7.503086850000001 12.649848750000002 1.747855935
1448 1 9.1537299 13.61503395 0.49332045
2682 1 10.367904750000001 13.6473603 0.87978723
2677 2 10.36387065 12.957404250000002 0.04717451550000001
3048 2 11.92742355 12.6104538 1.583850135
2683 1 11.1089475 13.323275700000002 1.6216135950000001
2244 1 11.5462368 13.386964500000001 0.5375616750000001
2684 1 12.253150350000002 13.60925055 1.584642675
2722 1 12.740259000000002 13.32593535 0.43973653500000004
3082 1 13.8793032 13.418666100000001 0.8998363500000001
3084 1 13.5341913 12.618147150000002 0.24482167500000002
3079 1 14.868942900000002 13.194077400000001 0.053307240000000006
3557 1 14.700260400000003 12.578787900000002 1.3940564400000002
3522 1 15.341485950000001 13.393479750000001 1.050135135
3923 2 17.390665950000002 14.275234050000002 0.749073465
365 2 16.5333483 13.552791000000003 0.592482555
3484 2 16.3774464 14.15224755 1.542677325
362 1 0.7471331700000001 14.349650700000002 0.6830552400000001
363 1 1.6055896500000002 14.941878000000003 1.297778895
3968 1 1.6643518500000003 14.488755750000003 0.1447040595
3203 1 0.6059842950000001 15.277707900000001 1.1912108250000002
768 1 1.4496591900000002 15.7289559 0.54554241
324 1 2.44757415 15.331061550000001 0.27973984500000004
723 1 2.7269445 15.0649716 1.4784708750000002
1165 1 3.1336746 15.98597805 0.8862525000000001
1128 1 3.9925273500000005 15.294326250000001 0.9386386800000001
1528 1 4.6963171500000005 15.846516000000001 1.5135372000000002
1522 1 5.1359805000000005 14.388992100000001 0.8728810650000001
1445 1 6.1702095 14.688122400000001 1.1417681100000001
1526 1 5.436842250000001 15.459367350000003 0.5562363450000001
1885 1 6.757706550000001 14.94078915 0.158689356
1597 1 6.674364900000001 15.824774700000003 0.7445770500000001
1487 1 7.32051705 14.647870650000002 1.0266320400000002
2285 1 8.4077427 14.557192650000001 0.6841119600000001
1923 1 8.38252065 15.264873750000001 1.5713069400000002
2293 1 9.01994415 14.312915400000001 1.6031959650000003
2283 1 9.883205850000001 14.661918600000002 0.766405815
2288 1 9.570688050000001 15.330115500000002 1.52722815
2365 1 8.99706045 15.595063050000002 0.5554473750000001
2321 1 10.335810450000002 15.5579529 0.15358729050000003
3158 1 10.8398052 15.200006850000001 1.2866690550000002
3088 1 11.681896800000002 14.510532750000003 1.083803805
2323 1 10.872078 14.409983700000002 0.31527741000000004
2322 1 11.884369350000002 15.41856225 1.6860449550000003
2320 1 11.484939900000002 15.365904750000002 0.35647521000000004
3198 1 13.019986350000002 14.2869258 0.6210836100000001
3121 1 12.744150300000001 15.372187950000002 0.9849219450000002
2812 1 13.837694850000002 15.278529000000002 0.9210457200000001
3598 1 13.93247835 14.659437450000002 0.01332068745
3521 1 14.6532078 14.3092383 0.7769908650000001
397 1 15.957168150000001 15.492925350000002 0.8582172900000001
3207 1 14.941878000000003 15.4008015 1.224958035
722 2 16.41823365 14.685159300000002 0.040346355
3563 1 17.2187169 15.6199638 0.38322879000000004
3964 2 16.9793127 15.131034450000001 1.278793635
401 1 0.58101393 17.571415050000002 1.17488343
398 1 1.61359716 17.483361000000002 0.644779485
405 2 0.6160731150000001 16.5346335 1.183974435
407 1 1.67594007 16.0707834 1.6257655050000002
5 2 0.6563802000000001 17.3518779 0.03521876400000001
805 1 2.5048012500000003 16.99571685 1.0444392
1241 1 3.3412344000000003 17.0084082 0.260554665
1161 1 4.307686950000001 16.300423650000003 0.568113735
843 1 4.29522765 17.4355587 0.6947469900000001
812 1 5.00487225 16.9313676 1.6259511450000002
1168 1 3.5977389000000004 16.848115200000002 1.5125358150000001
1967 1 7.02977625 17.161400550000003 1.38232185
1609 1 5.962042800000001 16.281895350000003 1.3627975200000002
1962 1 6.58416885 16.946504400000002 0.368090205
1205 1 5.4221517 16.65556725 0.56939715
2003 1 7.915207650000001 16.748547900000002 0.53850951
1926 1 8.84087295 16.288107150000002 1.7140194750000002
1969 1 8.2629078 17.435862150000002 1.39275696
1927 1 7.610900850000001 16.2928731 1.5854262900000002
2004 1 8.784520500000001 16.562729400000002 0.007406089950000001
2725 1 10.511222400000001 16.176937350000003 1.02341904
2363 1 10.05767175 17.1075471 1.4440078800000002
2401 1 9.252726000000001 17.254095600000003 0.812855085
2324 1 9.9955359 16.8018123 0.1479731085
2397 1 11.9453271 16.2378237 0.8458329600000001
2765 1 11.220849150000001 16.675059450000003 1.7751735750000002
2806 1 12.49148355 17.4472326 0.9720039000000001
2721 1 11.054629950000002 17.319747900000003 0.74353818
2798 1 12.4961067 16.605533700000002 1.7494481550000003
2764 1 13.775773200000001 16.2556023 1.414118055
3969 1 13.853670600000001 17.3001486 0.9384351900000001
3167 1 13.051402350000002 16.429604100000002 0.42393928500000005
3202 1 14.426905500000002 16.3327143 0.315643335
3212 1 14.656474350000002 16.691017350000003 1.53956607
3562 1 15.8725413 17.651133150000003 0.10116219750000001
3567 1 15.7677975 16.4279619 1.3123427100000002
3560 1 14.932363950000003 17.315214 0.5726744100000001
3606 1 15.51170355 17.4214215 1.3939582650000002
37 1 16.536686250000002 17.822439600000003 0.9578042250000001
3603 1 16.37103825 16.56549615 0.448932855
3997 1 17.27953185 17.012692200000004 0.9089951850000001
452 1 1.3454009100000002 1.0832451 3.0193632000000004
52 1 0.0163933329 1.0926163500000001 3.1061856000000003
806 1 0.7106941800000001 0.51240924 2.3940777
808 1 2.9127987 0.9091379850000001 1.9084863
852 1 3.4980823500000002 0.7968240000000001 2.9144944500000003
849 1 2.3462397000000004 0.40879713 2.9933022000000005
1249 1 2.5267389000000002 1.423716 2.792811
1245 1 3.8996895000000005 1.2740491050000002 1.9101820500000002
1252 1 4.6351095 0.87015894 2.6504215500000003
406 1 3.8371788000000002 0.0772464105 1.8877446000000002
2044 1 5.386380300000001 1.498345065 2.1213297000000004
1608 1 6.33533985 0.5943532350000001 1.7882487
1566 1 5.692400700000001 0.6278719650000001 2.70075855
1530 1 6.690679800000001 0.11221973700000001 2.7794592000000002
1251 1 6.509573700000001 0.9411715950000001 3.5194309500000003
2409 1 7.14319515 1.1162390400000002 2.3072731500000003
2009 1 8.64941385 0.8975301300000001 2.5169928
2006 1 7.625966250000001 0.704198565 3.1393152000000004
2049 1 7.885969350000001 1.7543408400000002 2.68729965
2053 1 7.819585200000001 0.29174932500000006 2.16308085
2089 1 9.7815501 0.62911254 2.2902264000000003
2050 1 9.56215575 1.187912145 3.32286675
2367 1 11.16819165 0.72747318 2.4431652
2332 1 12.0942675 1.432649925 2.7857781000000004
2767 2 12.3523428 0.16500575700000003 3.5522035500000007
1731 1 10.78063245 1.3864987500000001 3.3443224500000004
2805 1 12.518829750000002 0.46974774 1.912449
2770 2 14.12150985 0.687994335 2.8858452000000003
3609 2 14.908355700000001 1.507973355 3.1825836000000005
8 1 15.337326900000003 0.157448781 2.7624660000000003
3246 1 14.820908550000002 0.960435315 1.9424370000000002
3970 1 15.75353535 1.3254571050000001 2.5674369
3682 1 15.938122200000002 0.49929306 1.8310708500000001
446 1 17.351628 0.26505822 1.78901625
3209 1 16.589058150000003 0.427141575 2.76701775
3649 1 16.87190925 1.26442974 2.21991525
3646 1 16.716525 1.1470035150000002 3.55095405
84 1 1.4912247000000003 2.44453965 1.9502017500000002
889 1 0.7933932300000001 1.9014355500000002 2.5287738
482 1 0.8647932300000001 2.9699722500000005 2.78090505
448 1 3.0608466 2.1642411000000004 2.07286695
1246 1 1.7966739 2.5087818000000004 2.99738985
447 1 2.4244227 3.0264318 2.2081878
846 1 2.8754386500000004 2.6042971500000003 3.1691604000000004
1206 1 3.8952091500000003 1.9533076500000002 2.890629
1685 1 5.0219547 2.65859685 1.8325702500000003
1650 1 3.8628114000000005 2.9828778000000002 2.34240195
1642 1 3.8582775000000002 3.1966851000000003 3.5155396500000005
1256 1 4.7405316 2.5578693000000006 2.8404169500000003
1970 1 5.834129700000001 1.9532005500000003 3.05811555
1283 1 5.836164600000001 2.9626002000000002 2.56674075
2129 1 6.992683950000001 2.4232446 2.2708056
1254 1 6.9895245 1.94681025 3.32483025
2048 1 8.001512400000001 2.7008835 1.9655527500000003
2046 1 8.043977550000001 2.90760435 3.1889203500000005
2445 1 9.227771700000002 2.87668815 1.8430482000000001
2850 1 9.87699405 1.9989144 2.5280598000000003
2052 1 10.03171785 2.99114235 2.8775628
2450 1 9.3094533 2.3043993 3.5251608
2846 1 10.738220850000001 3.5258569500000005 2.2221822
2816 1 12.0985158 2.2227177 3.5419041
2849 1 12.221770050000002 2.4601584 2.1825016500000003
2452 1 11.22424065 2.0295807 2.1450702
2449 1 11.297729100000002 2.7594850500000003 3.02477175
3289 1 13.117768650000002 2.1053004 2.7415636500000002
2845 1 12.807803400000003 3.237276 2.8484673000000003
3208 1 14.07670635 1.7889984 2.2232889
3244 1 13.87464435 2.875635 2.5603861500000002
3319 1 15.2968788 3.2330455500000004 1.936368
3683 1 14.97656055 2.32187445 2.3855097000000005
3769 1 15.521521050000002 3.4089751500000003 3.3157803000000006
3325 2 14.491754550000001 2.79843375 3.3639396000000006
3648 1 16.546593 2.2811764500000002 1.8367471500000003
525 1 16.654032150000003 3.5627172000000003 2.1048720000000003
85 1 17.5106358 2.0498761500000002 2.64981465
896 2 16.3593108 2.83948875 2.84338005
49 1 17.5059234 3.0454063500000004 3.1669648500000003
46 1 0.91808619 4.5018057 2.65977495
483 1 1.5226567650000002 3.8690767500000005 1.9429368000000002
3722 1 0.079808421 5.000356200000001 1.8830143500000003
925 1 2.5523358000000003 4.00477245 1.96587405
1242 1 3.0419256000000003 3.7983193500000003 2.8992862500000003
492 1 2.3465253 5.090141700000001 2.2571503500000003
885 1 1.90918245 4.0657302 2.9297205
892 1 2.9555673000000002 4.78014075 3.4414443
888 1 3.3858594 4.76146965 2.0689399500000003
487 1 1.8633972 5.115917100000001 3.2911116000000007
923 1 4.1125686 4.00652175 1.7868564
1725 1 4.8356364 3.5846727000000005 2.6620954500000003
963 1 4.07263815 4.204513950000001 3.02316525
2122 1 5.127037650000001 4.6721125500000005 3.0358566000000002
569 2 4.35191925 5.26712445 2.21991525
1359 2 6.995236500000001 4.6681855500000005 2.04323595
1727 1 5.453710500000001 4.997268150000001 1.9870441500000002
1687 1 6.51519645 3.76635 2.2644331500000003
1287 1 6.14034645 3.9408337500000004 3.3282039000000005
2092 1 6.15944595 5.13631965 3.2101618500000004
1612 1 7.39723635 3.9073828500000007 3.1582005000000004
2444 2 8.11080795 3.8335017000000002 2.04966195
2535 2 7.1722014000000005 4.89488055 3.2811691500000006
2088 2 8.659873950000001 5.17837425 2.5262034000000004
2132 2 8.2797939 4.5410578500000005 3.5361564000000003
2047 1 9.231555900000002 3.8308599 2.3384214000000005
2491 1 10.142691300000001 4.5615318 1.8869592000000002
2887 1 9.805915350000001 4.344333000000001 3.0914950500000007
2842 1 11.7311271 3.8585631000000005 2.7143067000000003
2448 1 10.8090318 3.6701920500000003 3.4422654
2886 1 10.819277700000002 4.6539948 2.8640682000000006
2883 1 11.233058549999999 4.4123415 1.7931396000000002
2567 1 12.349129800000002 5.263072500000001 3.50436555
2892 1 11.6809686 5.2431519 2.5730061
2931 1 12.6366219 4.6741653 2.49766125
3285 1 13.44649425 3.9478666500000004 2.16904275
2521 1 13.890655800000001 5.035520700000001 2.6713596000000006
3292 1 13.822718700000001 3.9535251000000002 3.4039057500000003
2927 1 12.777262050000001 4.1490540000000005 3.5581833
3322 1 15.691667250000002 4.332676950000001 1.97315685
2885 1 14.853038550000003 5.0723988 2.11117305
3245 1 14.682928050000001 4.142824350000001 2.9405733
2923 1 14.643122550000003 5.152224 3.4928701500000003
3328 1 15.776115600000002 4.7477073 3.1956141000000002
126 1 16.8958461 4.5992310000000005 2.4667272000000002
127 1 17.7958074 4.048897650000001 2.5990135500000004
3767 1 17.6494374 4.909339050000001 3.4008712500000002
3288 1 16.990344 3.9866547000000003 3.4714501500000003
496 1 1.373402205 5.905137000000001 2.3941848
3728 1 0.028442190000000003 6.083815500000001 2.1407505000000002
1326 1 0.89351745 6.9131443500000005 2.8144809000000004
132 2 3.1798347000000002 5.787523350000001 1.9167687000000002
926 1 1.91903565 7.003626000000001 3.3679737
3732 2 1.9390455000000002 7.0385406 1.9710327000000003
531 1 2.7499888500000003 6.267063600000001 3.5268565500000006
1409 2 5.0695785 6.99025635 1.9568598000000001
962 2 3.9757483500000004 6.3772695 2.46342495
2525 2 4.8347439 6.8481882 3.0204699
1332 1 5.227604550000001 5.8037133 3.0716815500000005
2082 2 6.208694100000001 5.6276766 2.3288716500000004
967 1 6.10471785 6.6220644 1.85688195
2125 2 6.72811125 6.26779545 3.1726947000000005
2121 2 7.4208876 5.66542935 2.4661917000000004
2205 2 8.13304905 6.92988765 2.3852241000000003
1736 2 8.0611671 6.326289900000001 3.3968014500000003
2485 1 9.6410706 6.166336050000001 1.9616436000000002
1696 2 8.975890350000002 5.712178500000001 3.45759855
2442 1 9.042470849999999 6.5409183 2.7186621
2171 1 10.1298393 7.07440125 2.511495
2096 1 10.024363650000002 5.50992015 2.8583919
2481 1 10.843732200000002 6.2227777500000006 2.24251335
1772 1 11.591272350000002 6.052595850000001 3.4000323000000003
2569 1 12.0575322 6.88315635 2.33908185
2929 1 12.765052650000001 5.70409245 2.3243556
2482 1 13.941189150000001 5.61284325 1.8131673000000001
2925 1 13.833696450000001 6.1008801 2.9313805500000005
2971 1 12.526380300000001 6.531190050000001 3.2361157500000006
3358 1 15.939264600000001 6.4111488 1.9046664
3326 1 16.03449435 5.53765905 2.4823638000000003
3300 1 14.9459835 6.02332185 2.4541965
3363 1 15.916916400000002 6.7248090000000005 3.2835967500000005
2926 1 15.150026850000001 7.103943000000001 2.5524429000000004
3323 1 16.89722055 5.4916239000000004 1.7893375500000002
3765 1 16.710670200000003 5.4653844000000005 3.4144551000000005
3724 1 17.01792225 6.263689950000001 2.8604446500000003
570 1 0.012736207050000002 7.68380025 3.4460139000000005
162 1 1.3806725100000001 8.039033100000001 2.58044955
205 1 0.24501267000000002 8.19513135 2.32351665
563 2 3.0579727500000002 7.15286985 2.7506314500000006
1086 2 2.1787710000000002 8.5117011 1.7992800000000002
968 2 3.31672635 8.653340850000001 2.24554785
1053 1 1.8196290000000002 8.887622100000002 3.1899913500000006
642 1 2.4281355000000002 8.092833 2.73545895
568 2 4.010859300000001 7.62557355 2.38113645
1007 1 3.9728745 8.456098350000001 3.0481731
1369 1 5.1013872000000005 8.044352400000001 2.70868395
1682 1 6.12356745 7.56413385 2.9323444500000004
1768 1 6.471053400000001 8.24968095 2.0529820500000002
1816 1 6.0644304 8.834928900000001 2.8758135000000005
928 1 7.08857415 7.200029550000001 2.1819126
1325 1 8.01316845 7.909245750000001 2.4171399000000005
2207 1 7.2690376500000005 7.630785750000001 3.2405961000000003