Position Data

4000 atoms
2 atom types

0.00 17.85 xlo xhi
0.00 17.85 ylo yhi
0.00 17.85 zlo zhi

Atoms

1216 1 1.60800654 0.8124748800000001 0.8255464350000001
1331 1 0.63317163 0.318292275 0.399727545
3336 1 0.039833346000000006 1.16694732 0.80888346
3683 1 0.17654453250000002 0.5031468750000001 1.725689805
3644 1 2.9505336000000004 0.34023349500000005 1.1070927000000002
3630 1 2.6668257000000004 1.54332171 1.3189668450000003
4 1 3.1730517000000003 0.157349178 0.04476030300000001
448 1 2.32612275 0.77442939 0.048293532
2 1 3.2146243500000002 1.3286826 0.44929878000000006
812 1 4.22754045 0.06778716 0.6811488600000001
1673 1 4.3793547 1.504931715 0.9569045850000001
1212 1 5.292846300000001 0.8963591700000001 0.078891288
1525 1 4.96528095 0.6793013850000001 1.6242482550000001
1643 1 5.6356377 1.5656199300000002 1.04246499
197 1 6.495454350000001 0.7012515300000001 1.16955699
792 1 6.6724549500000006 1.048610745 0.093005997
3201 1 7.65424065 1.281146265 1.1182882200000002
2487 1 8.762297250000001 1.7802447600000002 0.8960467950000001
845 1 8.20909005 0.048811003500000005 0.6850633650000001
1240 1 8.372738850000001 1.0723280400000001 0.18577923000000002
2133 1 9.43945485 0.7404894000000001 1.5238991250000002
2471 1 10.147653600000002 1.6398277350000001 1.284327135
2403 1 9.5002341 0.0919180395 0.5632442550000001
1571 1 9.60071175 1.29729516 0.38790192
2797 1 10.7115351 0.6810613950000001 0.70893417
3411 1 11.3095101 1.3967571450000003 1.3850154150000002
2049 1 12.0352554 0.54472131 0.8357066550000001
3649 1 12.394629450000002 1.618304205 0.61331886
3164 1 13.216675500000001 0.9562851900000001 0.36082704000000004
2405 1 13.056650250000002 0.10012546950000001 1.1572886850000002
3718 1 14.078491350000002 0.45676543500000005 0.89222511
2855 1 12.94051815 1.1535473250000001 1.58127438
3607 1 14.226771300000001 1.478677935 1.61402913
1931 1 14.643461700000001 1.20843786 0.403108335
3615 1 15.2713176 0.33874302 0.9992929800000001
41 1 15.629531400000003 1.449496755 0.51524025
3837 1 16.264188150000003 1.1161283700000002 1.499326815
83 1 17.070044250000002 0.47781951000000006 1.1734286550000002
87 1 16.892365350000002 1.5598900800000002 0.620992575
2814 1 17.281441800000003 1.5268800750000002 1.6582007400000003
3638 1 16.3707348 0.5325940200000001 0.16421803650000003
2842 1 0.495771255 2.1503716500000003 0.905289525
3641 1 1.4774605650000001 1.7850714 1.514085195
56 1 1.647081975 2.8383999 0.83061405
3645 1 0.505445955 3.2696023500000004 1.0297129500000002
3773 1 0.8087745750000002 3.46027605 0.016598375850000003
871 1 2.58634005 3.1870282500000005 1.3935816300000001
1008 1 2.8963053000000003 2.68779945 0.40377771000000007
915 1 1.8932067000000001 1.83039255 0.43687161
119 1 3.6060391500000004 2.2664502000000004 1.4456715000000002
76 1 4.016339250000001 2.5613322000000003 0.423949995
529 1 4.9780794 2.12772 0.294612465
1286 1 4.7426379 2.3175726 1.6214904300000001
601 1 4.220971650000001 3.2633191500000005 1.61240478
2077 1 6.674079300000001 1.8951523500000003 0.902494215
1249 1 5.694471300000001 2.8239592500000006 0.6613246500000001
1318 1 6.725880000000001 2.7272301000000003 0.10848462450000002
2079 1 5.98883565 2.4615864000000003 1.6976206800000002
2834 1 7.5497646000000005 2.07361665 0.1501890075
2488 1 7.364428050000001 2.90335605 1.118275725
2714 1 8.5516851 2.87775915 0.7832687100000001
3040 1 9.54494835 3.30262485 0.911869035
1634 1 9.50721345 2.3779056 0.38916748500000004
2006 1 10.548011250000002 2.6533489500000003 1.2000198
884 1 9.032403450000002 2.4819354000000002 1.7085627300000001
2792 1 10.261965 2.9917314000000004 0.025750767
2786 1 10.8428397 1.8997398 0.25408761
1603 1 11.583150600000002 2.4347221500000003 1.1437708800000002
1963 1 11.4528456 3.0538137000000005 0.1439322255
3731 1 12.315000600000001 3.23193885 1.6365754650000002
3202 1 13.546008 1.9403842500000001 0.7463531250000001
330 1 12.948711300000001 2.31230685 1.6501218300000002
2879 1 13.726917750000002 2.9347542000000004 0.53249406
2314 1 12.811444800000002 2.5311121500000002 0.0390931065
2893 1 14.0624442 2.65167105 1.5309588
2479 1 15.763567050000002 2.47784775 0.7745793300000001
3376 1 14.629288800000001 2.1906055500000003 0.649045635
2730 1 14.78820735 3.2473791000000003 0.6810756750000001
447 1 15.272567100000002 1.9850806500000002 1.713044865
3700 1 15.780578100000001 3.4256649 0.290888955
3208 1 16.213494150000002 3.25114545 1.3601360850000002
105 1 17.78447265 2.70971925 0.09495218250000001
2443 1 16.699032000000003 2.8156411500000003 0.28055380500000004
3642 1 16.3753044 2.2245741000000003 1.7134107900000002
482 1 17.32072965 2.4775086 1.013674725
524 1 0.8082979800000001 4.5346497 0.6529155150000001
577 1 1.5158791200000001 4.8872943 1.370492655
3795 1 1.73861142 3.8757348 0.9378889800000001
207 1 0.31644301500000005 4.402131300000001 1.682574915
1000 1 3.52103745 3.6354381000000004 0.942953025
3740 1 2.5787359500000004 5.023596900000001 1.2205098150000002
3650 1 2.00382315 5.29600575 0.22029756
848 1 2.68694265 4.290069 0.12061673400000002
883 1 4.63898295 3.6289764000000004 0.599668965
1204 1 3.75837105 4.58368365 0.48422052000000004
1037 1 4.3210566 4.3560426 1.51776408
553 1 3.7027504500000004 5.2194114 1.464533595
834 1 4.6347525 5.332723200000001 0.7532128800000001
1201 1 5.434825200000001 3.6367590000000005 1.65928245
520 1 6.41462955 4.1687604 1.5454280100000002
39 1 5.7739038 4.38026505 0.39925809
1759 1 5.3634787500000005 4.75247325 1.3085085300000001
2128 1 6.6536946 5.292435750000001 1.0302127500000002
1278 1 6.8221629 4.130240100000001 0.46226680500000006
117 1 7.474544700000001 4.376659350000001 1.4777479500000001
1717 1 7.8379707000000005 3.7588173 0.582811425
1994 1 8.5777104 4.15813965 1.1914589400000002
2441 1 8.1794412 5.016528300000001 0.54608148
2047 1 8.666817600000002 4.0606251 0.068805324
1638 1 9.54994635 4.57051035 0.8214980550000001
3363 1 10.5867636 3.9136482000000004 0.49607292000000003
2956 1 10.22067795 5.19104775 0.28541793
2159 1 10.05046035 5.042678550000001 1.74684027
2074 1 11.37428775 3.60539655 1.1664885750000002
2635 1 11.27764785 4.778248650000001 0.8051046150000001
2631 1 12.186516300000001 3.9066153000000003 0.470795535
2969 1 12.344096100000002 4.755597 1.2866190750000002
2481 1 13.186687500000001 3.7294005000000006 1.243140045
3256 1 13.97685345 3.9449749500000006 0.35330505000000006
2600 1 13.0384968 4.98684375 0.30761619
2123 1 13.46295195 4.799543700000001 1.53451452
2087 1 14.3697855 4.9733313 0.7141927800000001
2918 1 15.315317850000001 5.139639750000001 1.7776190250000001
122 1 14.369499900000001 3.9012603000000006 1.4650798050000002
2528 1 17.1746631 3.799551 1.27310841
3316 1 16.891419300000003 4.74347685 0.43236805500000003
3282 1 17.61236295 3.9488484000000006 0.16184059500000003
160 1 16.1255472 4.372089750000001 1.18361922
3447 1 16.7783217 5.107991700000001 1.732490655
789 1 1.0590708450000001 5.8839312 0.25765404000000003
1601 1 0.6505236150000001 6.641003250000001 0.96125106
239 1 1.6649123400000003 6.228579 1.3055115150000003
170 1 0.6555537450000001 5.6195727 1.1873177400000001
1322 1 2.360484 6.8561493 0.6041850150000001
450 1 3.3073908000000003 5.673693900000001 0.32013618000000005
3417 1 2.7853854 6.1220502 1.3667745
1427 1 2.2570611 7.04676945 1.6570244250000001
1081 1 5.23038915 6.772807650000001 1.6833995850000003
560 1 4.26795285 6.646340400000001 1.2701149649999999
1754 1 5.269766250000001 6.5379195 0.5462706900000001
1752 1 4.08406215 6.441618750000001 0.214390995
1431 1 5.5768755 5.406175950000001 0.12934110000000001
954 1 6.332519550000001 6.3544215 0.49814530500000004
561 1 5.8561566 5.83889565 1.4602942200000002
598 1 7.063566300000001 6.668438700000001 1.200892665
1279 1 7.340723250000001 6.19079055 0.16117496850000002
2113 2 8.070574050000001 7.110208350000001 0.43806577500000005
1799 1 8.30412345 6.071784600000001 0.903140385
877 1 8.911184100000002 5.3567671500000005 1.6021713750000002
1359 1 8.756031900000002 7.099676850000001 1.4157977400000001
2447 1 7.668074400000001 5.448462600000001 1.505285145
1595 1 9.2542611 5.56329165 0.43635396000000004
1357 1 10.0487289 6.076818300000001 0.9145304700000001
1992 1 9.207226350000001 6.67891665 0.602596365
960 1 11.0385114 5.752037550000001 0.781692555
2136 1 11.92396065 5.947620000000001 1.4143626
1317 1 11.590826100000001 6.6660468 0.5184764550000001
3011 1 13.006313250000002 5.7917359500000005 1.26029925
3073 1 14.21939925 5.736329550000001 1.6817270400000002
3369 1 12.704398350000002 6.9638562 1.2325889100000003
3287 1 13.570980150000002 6.6390040500000005 1.7626839300000001
3325 1 12.575682000000002 6.42755295 0.23361009000000002
3284 1 14.809056150000002 6.0582186 0.36555907500000007
2926 1 14.968724400000001 6.5327965500000005 1.7606543850000003
3439 1 14.3718204 6.985936650000001 0.9750651750000001
127 1 15.448585950000002 6.960464700000001 0.6305512500000001
1479 1 17.21263005 5.736454500000001 0.57947526
3294 1 16.166869950000002 5.95074375 1.1943006600000001
647 1 17.638870200000003 6.582080400000001 0.16572404100000002
3686 1 17.052337050000002 6.21292455 1.7111099250000001
2084 1 16.57420695 6.8290887 0.6426446250000001
635 1 1.06425984 7.6348377 1.05458157
556 1 1.6098040350000002 7.72357005 0.1491526365
253 2 1.1830462350000002 8.643541200000001 0.43066695
1050 1 0.12507013050000002 7.67805255 0.36348847500000003
1436 2 0.12677712600000002 8.56351965 1.0651219950000002
484 1 2.335137 7.9642059000000005 0.991355085
2283 1 3.0485301000000002 7.65995265 0.033076942500000005
140 1 3.4688440500000004 7.4250645 1.196001765
2154 1 3.49137075 8.63499105 0.9102161250000002
994 1 4.2059598000000005 7.752861900000001 0.25471236
1363 1 4.7072235000000004 7.609936950000001 1.16078907
1238 1 4.5436818 8.8396413 0.3634724100000001
522 1 5.526003000000001 7.959904050000001 0.46032829500000005
886 1 6.203249850000001 7.324212000000001 1.15113936
1395 1 5.89930005 8.819470800000001 1.46623827
1407 1 7.031079300000001 8.748749100000001 0.43935454500000004
532 1 6.9243006000000005 8.081337600000001 1.550677695
1523 1 5.72094285 8.91812775 0.006104807100000001
914 1 6.61258605 7.5128865000000005 0.12208953750000001
2235 1 7.763786100000001 8.0359629 0.7586660550000001
1720 1 8.4640059 8.3204205 1.5152579400000001
1040 1 9.227736 8.08845975 0.6479907
1763 1 10.2024174 8.224316100000001 1.01806047
2130 1 9.42049815 8.42382555 1.74716157
2916 1 10.28822235 7.356324150000001 0.32534124000000003
3809 1 10.910866050000001 7.435346100000001 1.33130655
3043 1 12.068099400000001 7.797951000000001 0.937276725
2156 1 11.179758450000001 8.51789505 0.5927592300000001
2323 1 11.6745069 8.588473950000001 1.504942425
3727 1 13.131763050000002 8.574193950000002 0.1204334145
3399 1 13.349658000000002 7.9052652000000005 1.2028775850000002
3009 1 13.591043550000002 7.443771300000001 0.189326025
2163 1 13.7110491 8.89749315 0.9202781700000001
2850 1 14.5394319 8.4667191 1.4775748050000002
2129 1 14.589768900000001 7.977629100000001 0.46518171
247 1 15.184513050000001 7.6942782 1.58014626
2599 1 15.687597450000002 8.1299967 0.40879713
3334 1 17.464261500000003 7.166185950000001 1.1778411750000002
2913 1 16.514766450000003 8.412687150000002 1.490762385
950 1 16.826481 7.97286315 0.50380197
3876 2 1.273427925 10.006656450000001 1.3532799000000002
3807 2 0.46567794000000007 9.42338985 0.413671965
592 2 0.35346570000000005 10.49399715 0.9696280650000001
235 2 0.9532881750000001 8.971392150000002 1.5786611400000001
1017 2 2.4233160000000002 9.007288500000001 0.4932490500000001
3852 2 2.0331507 9.20169285 1.4970652200000003
3000 2 2.90328465 10.012261350000001 0.90890415
1015 2 1.94416845 10.38264885 0.53265471
1885 1 4.8535221 8.96493045 1.5651986700000002
1206 1 4.85507505 10.17480345 1.13378916
1567 1 4.8371715 10.49146245 0.07127201550000001
2241 1 6.2234382 9.544020150000001 0.7284638550000001
1481 1 7.071866550000001 10.528626150000001 1.2533199000000002
1760 1 5.9717175000000005 10.39050285 1.38899061
2118 1 7.2621297 9.26866605 1.38120087
1719 1 8.5007412 10.034823750000001 1.437419445
2960 1 8.346303 9.133505850000002 0.846373815
1723 1 8.774185350000002 10.1377647 0.316775025
1410 1 7.719839400000001 9.9258138 0.61863102
2276 1 9.3890643 9.397221750000002 0.980370195
2558 1 9.868336800000002 10.47878895 0.8344446600000001
1724 1 10.510847550000001 9.204566699999999 1.2330173100000001
1800 1 10.222695 9.2845347 0.17051569500000002
2532 1 10.97848185 10.0319499 0.5998171200000001
2958 1 12.2531682 9.08616765 0.6964016850000001
2124 1 11.937723000000002 10.27954725 0.270664905
649 1 12.395754 10.302627300000001 1.212213135
3045 1 11.670954750000002 9.7177185 1.778511525
1515 1 12.800002950000001 9.24592515 1.7829633150000002
3409 1 13.4542233 10.052834400000002 1.27387596
213 1 13.0701984 9.96495885 0.25879465500000004
3525 1 14.21743575 9.801167250000002 0.52287291
2315 1 14.842560600000002 10.08683865 1.4983647000000002
3443 1 15.616322400000001 10.145529450000002 0.39924202500000006
2275 1 15.567913200000001 9.292013850000002 1.0165521450000001
3761 1 16.4669463 9.142377300000001 0.0202659975
2332 2 17.651882850000003 9.579666600000001 1.4197657950000002
3808 1 16.8133434 10.29200655 0.0452588535
3532 2 1.670229855 11.0698203 1.4641444650000002
1058 2 0.4751152350000001 12.05690745 0.988109955
1443 2 1.1526940950000002 11.108715450000002 0.398624415
1135 2 1.8953487000000002 11.996931450000002 0.74629779
3935 2 1.7870349 12.2803359 1.783220355
640 2 2.9404662 11.04356295 1.13941905
1098 2 2.4117492000000005 11.225186700000002 0.10354071000000001
3452 2 3.3669205500000006 11.743693500000001 0.32947708500000006
3612 2 2.9923383000000006 12.17357505 1.59316605
3405 2 4.20065835 11.330840850000001 1.4963637150000002
3813 2 3.8010325500000004 10.830773100000002 0.52098438
201 2 4.1040541500000005 12.40419705 1.4796882450000002
3892 1 5.1011194500000006 11.7023886 0.8968554
1529 1 6.048740250000001 10.873970100000001 0.37088730000000003
1461 1 6.223938 11.87944275 0.712572
767 1 6.253247700000001 12.317160450000001 1.6924281150000002
2121 1 8.20120035 10.977714300000002 0.778351035
684 1 7.230963600000001 11.720185050000001 1.068856215
1862 1 8.307461400000001 12.0599241 1.3153218750000002
2678 1 8.8218627 12.2867619 0.37022149500000007
2670 1 9.1136745 10.999259250000001 1.3986189
1874 1 9.695031150000002 11.815629000000001 0.9554997900000001
1762 1 10.5628089 11.155714500000002 1.650769785
3489 1 9.10037625 11.269097700000001 0.17696864850000002
2963 1 11.59894785 11.17675965 0.9552320400000001
2534 1 10.77085065 11.177027400000002 0.327920565
2524 1 12.20013585 11.758901700000001 0.0448875735
2642 1 11.253800250000001 12.109779150000001 0.6494151300000001
1838 1 12.02349225 12.174860250000002 1.5670318650000001
371 1 13.2244224 11.05602225 0.17897659500000002
3561 1 12.715376100000002 11.5222464 0.9706258800000002
3922 1 13.903579200000001 11.74064115 1.173028815
3118 1 13.22685 12.227660550000001 0.42426415500000003
3559 1 14.206190250000002 10.788040200000001 0.87901611
2297 1 13.25235765 10.958953950000001 1.738256205
3095 1 14.254617300000001 11.723219550000001 0.067530477
1085 1 15.183888300000001 11.2331835 0.8017987950000001
3377 1 16.02614055 11.9426853 0.8740645200000001
210 1 15.288025200000002 12.207311550000002 1.6376446800000002
1042 2 17.146388700000003 10.73968455 1.0657431750000002
3567 2 17.71475055 11.549164200000002 0.369868065
1450 2 17.056014150000003 12.47241975 0.8040050550000001
1035 2 17.34600525 11.73810645 1.5501332700000001
3679 2 0.09311648850000001 13.092207450000002 0.8079641850000001
3566 2 1.0159309650000001 12.879613950000001 0.20344359
1531 2 0.9859768800000002 12.910655100000001 1.3526587200000002
292 2 1.3609286250000001 13.88938845 0.9121367850000002
243 2 0.393690675 14.280000000000001 1.7057281500000003
739 2 2.1889098000000002 13.008919350000001 1.0639813800000002
1972 2 3.2860779000000004 13.25032275 1.03470738
1183 2 2.4224770500000004 14.046879 0.8376415950000001
1172 2 2.65781145 13.310673600000001 0.0462877275
2281 1 4.37419605 13.353049500000001 0.58417695
1843 1 5.2044531 12.70693305 1.08732204
1209 1 4.88570565 13.79610435 1.59422634
1205 1 5.10408255 14.200942350000002 0.140566251
1614 2 3.7259376000000004 14.228949 1.7370067050000002
804 1 3.6814732500000007 13.840925700000001 0.05268249
1092 1 5.850408900000001 13.520304000000001 0.671536635
1283 1 6.86227185 13.822218900000001 1.4215293750000002
673 1 6.51755265 12.799824450000001 0.058057303500000004
2308 1 7.3746204 12.771371550000001 1.41978543
2269 1 7.8652276500000005 12.812712150000001 0.46547802
2673 1 8.00706375 13.68475605 1.16815755
1535 1 7.2657354000000005 13.681489500000001 0.1481823105
2244 1 8.877679650000001 14.190464400000002 0.9132488400000001
1157 1 8.770401150000001 13.3640451 0.20363101500000003
2355 1 8.9371737 12.9759861 1.399095495
1844 1 10.2170544 12.7600011 0.8451689400000001
1965 1 9.796740450000001 13.7733456 1.326856545
3604 1 10.5720195 14.193409650000001 0.59623641
3554 1 11.21688645 13.208410950000001 1.0505082000000001
3087 1 12.196369500000001 12.9308256 0.604106475
2199 1 10.915328550000002 13.19712975 0.048542718
3161 1 10.73882775 14.2223445 1.701956445
2357 1 11.695694850000002 14.24695965 0.6358794750000001
3159 1 11.92460325 13.768008450000002 1.686873195
1089 1 13.97264085 13.999719300000002 1.25877843
3481 1 13.966911000000001 12.900284250000002 1.2451053300000001
2739 1 12.98342955 13.27313505 1.5447550650000001
3209 1 13.3017486 13.358350950000002 0.580933605
1054 1 14.969349150000001 12.560116800000001 0.56309967
2684 1 14.670093900000001 13.574764350000002 0.5876398500000001
3572 1 15.442927500000001 13.326096000000001 1.47978285
2719 1 16.17829395 13.458971400000001 0.442167705
1108 2 16.899130500000002 13.43564145 1.2752575500000003
791 1 1.0712588250000001 15.168412350000002 1.1071426800000002
2762 1 1.5652183050000001 15.9402285 0.31957390500000005
762 1 0.539003955 14.357308350000002 0.20285097000000002
3528 1 0.444691695 15.662482500000001 0.039839772
1646 1 3.0170248500000003 14.969813250000001 1.425177915
728 1 2.3913466500000005 15.8713989 1.2821315850000001
692 1 3.4144194000000003 15.9451908 0.8446923450000001
1528 1 2.5777363500000003 15.30557175 0.19378674
819 1 3.68661405 14.934113250000001 0.54649917
439 1 4.92269085 14.766323250000001 0.9645693750000001
1522 1 4.4424366 15.77092125 0.5779847850000001
2034 1 4.0735842 15.379310100000001 1.62621711
1896 1 5.9997063 14.458410750000002 1.3291395600000002
1241 2 5.91647175 15.730491000000002 0.523574415
763 1 6.521265450000001 15.690221400000002 1.3940778600000001
675 1 6.4696968 14.724215100000002 0.4825569
2271 1 7.794398850000001 14.620024650000001 0.591532935
1920 1 8.7655995 15.253788900000002 0.442753185
1253 1 7.1979768 14.96338725 1.57666908
2169 1 8.857527000000001 15.145707150000002 1.7347308300000002
808 2 7.39345215 15.503385450000001 0.1412825715
2760 1 9.72648285 14.66622045 0.102611082
1613 1 9.904536600000002 15.1708578 1.1797993200000003
2632 1 10.018330350000001 16.034440800000002 0.51539376
3529 1 11.064661650000001 15.338344350000002 0.741947745
1612 1 12.175966950000001 15.442873950000001 0.5638190250000001
3521 1 11.842475400000001 14.897181600000001 1.6652746950000001
2752 1 12.9279339 14.346991050000002 0.96484605
3 1 13.781645850000002 14.383887000000001 0.20874504000000002
2692 1 13.33482465 15.2724957 0.695466345
3570 1 14.441970900000001 15.063686400000002 0.9377015550000001
1165 1 15.74732355 14.565225150000002 0.210610365
3527 1 15.804568500000002 15.781452750000001 1.47221445
329 1 15.028718250000002 14.383565700000002 1.48877568
3979 1 15.277797150000001 15.623319600000002 0.49008603
5 1 16.1818461 14.373284100000001 1.405478655
353 1 17.737812750000003 15.461741400000001 1.012921455
3753 1 16.6766124 15.710374050000002 0.17688957300000002
774 1 1.23804387 17.8012695 1.3426770000000001
3558 1 1.1192092800000002 17.068223550000003 0.55600251
3882 1 0.9660027300000001 16.2434643 1.1433121350000002
758 1 1.8127032000000003 16.869588750000002 1.3970498850000002
413 1 2.1724878000000003 17.498872650000003 0.621817245
760 1 2.9272750500000004 16.9065918 1.26016716
190 1 3.6498252 16.861806150000003 0.166037487
722 1 4.28876595 16.846990650000002 1.157859885
1207 1 5.5198804500000005 16.12699305 1.5289310400000002
477 1 5.577625200000001 17.76722955 1.2133269750000002
2720 1 6.358312800000001 17.1506727 1.6909180050000001
1969 2 6.9698002500000005 16.61915325 0.9082936800000001
565 2 6.00761385 16.890294750000002 0.6927727800000001
1641 2 7.857766350000001 16.148198850000004 1.499412495
1900 1 7.4770437 17.317695150000002 1.59222357
3486 1 8.734451250000001 17.361624 1.61818818
2478 1 8.56569735 16.86298425 0.6069731850000001
2724 1 9.090969300000001 16.091025300000002 1.184620605
3123 1 10.073522550000002 17.6757126 1.7224553850000002
2009 1 10.2959514 17.155028100000003 0.7573005300000001
2367 1 10.015563600000002 16.53672195 1.6408594650000001
1677 1 11.1993042 17.656506000000004 1.279479075
2710 1 11.52554865 17.327709000000002 0.2115225
3934 1 12.24304725 17.175680550000003 1.3021771350000002
1296 1 11.377768500000002 16.428336750000003 0.8667370950000001
770 1 12.344613750000002 16.620616950000002 0.0300817125
3166 1 13.066146450000002 16.3920477 0.8216979750000001
3207 1 14.022549450000001 17.17482375 1.1640252750000002
2801 1 14.10533775 16.1165151 0.702010155
2442 1 13.66226505 16.28982075 1.7544586500000001
3245 1 13.524998550000001 17.446250850000002 0.15407156100000002
2037 1 14.662150650000001 17.760357300000003 0.10134480300000001
3012 1 16.013163600000002 16.555875 0.21706135500000004
2917 1 14.970848550000001 16.812129600000002 0.47287863
2484 1 14.812019250000002 16.455361650000004 1.7542533750000002
2802 1 15.828862350000001 16.9713159 1.4983468500000001
3368 1 16.522959600000004 17.44514415 0.8014007400000002
533 2 17.8214043 17.496819900000002 0.9907196250000001
733 1 17.8355415 16.485438900000002 0.5034503250000001
46 1 16.7460132 16.31973735 1.1739945
1596 1 0.63315378 1.36305813 2.06472735
377 1 1.12495698 1.3124748 3.068772
404 1 1.0022275200000001 0.358047795 2.4734923500000003
212 1 2.1116371500000004 0.96675957 2.4491271
3768 1 3.2125716000000004 0.84819987 2.0808637500000002
479 1 2.4379173 1.27082361 3.47212845
526 1 3.193722 0.13488441750000002 2.98575165
2013 1 1.79694165 0.207797205 3.25221645
490 1 4.33149885 0.6057361800000001 2.93994855
1236 1 4.4809926 1.42360533 2.14601625
200 1 4.3734285 1.74016437 3.3166371000000003
734 1 5.405640450000001 1.1567032050000001 3.0481374000000003
913 1 5.716801650000001 1.42113846 2.0735274
2489 1 6.519337650000001 0.8753479350000001 2.97036495
436 1 6.76855935 1.492158255 2.0192634000000003
3189 1 6.9153756 0.253164765 1.9881330000000004
2407 1 5.6401716 0.16070265749999998 2.592177
1959 1 7.918170750000001 0.43881547500000007 1.89500955
2713 1 7.6003515 1.5814314600000001 3.0951721500000002
2812 1 8.71738665 1.26277683 3.31526265
3954 1 8.57708565 1.364480775 2.0101242000000004
1536 1 7.6059207 0.30974391 3.0260034000000005
1211 1 9.50221545 0.53141235 2.6872282500000004
1971 1 10.511133150000001 0.9244497150000001 3.0541528500000004
2452 1 10.6702302 0.6970710600000001 1.8952773
1644 1 9.6154737 1.761207735 2.4705649500000004
3296 1 11.496435300000002 0.7457979900000001 2.7006693
2449 1 11.224544100000001 1.7376796500000002 3.3451078500000007
2008 1 12.523452900000002 0.3423344400000001 2.32066065
2370 1 12.499319700000001 1.67232366 3.0694860000000004
2805 1 13.94240295 0.159006729 1.9610724000000002
3530 1 13.513628100000002 0.9242730000000001 2.6723413500000004
2358 1 12.639727800000001 0.7355985 3.3347191500000006
2803 1 13.571515650000002 0.10823686650000001 3.37356075
16 1 15.1456893 0.7893984000000001 2.04337875
409 1 15.968395800000001 1.4825835150000002 2.56902555
3216 1 15.716764350000002 0.55614531 3.01199115
2725 1 14.578826850000002 0.20169250500000002 2.90007165
2010 1 14.940896250000002 1.2954405450000002 3.0942618000000004
3288 1 17.7761724 0.9114906150000001 2.8366684500000003
1166 1 16.077673500000003 0.172918662 1.9215168
3969 1 16.9914864 0.576749565 2.2674676500000004
49 1 17.523773400000003 0.19164831000000002 3.5469378000000003
3766 1 16.763292 1.0099797750000001 3.41058165
3367 1 1.26081333 2.3668743 2.4290458500000005
2929 1 1.0499780550000002 3.3638860500000005 3.2939854500000005
3331 1 0.248723685 2.30391735 1.8837283500000002
492 1 0.32706555 3.30855105 2.31234255
406 1 2.33754675 2.0031627000000003 2.3082727500000004
881 1 3.4212738000000003 1.9321197000000003 2.6489578500000004
115 1 1.9328337000000002 3.2510562 2.69683155
3970 1 1.9171971 2.2943497500000003 3.34032405
857 1 2.9360394000000003 2.6917443 3.51311205
159 1 2.96322495 2.9333797500000003 2.3269795500000003
446 1 5.1651295500000005 2.1670614 2.68297995
440 1 4.138647450000001 2.9219022000000003 2.68187325
970 1 4.97199255 2.957745 3.48091065
2095 1 6.7045671 2.3916501 2.78786655
1199 1 6.8962939500000005 3.2563219500000002 2.1742728000000002
211 1 5.92311195 3.2577321 2.6124367500000005
1367 1 8.084497050000001 3.44631735 1.8335341500000002
2083 1 7.73510115 2.34083115 1.8852099000000002
2001 1 8.433071850000001 2.2864422 2.8302067500000003
124 1 7.818442800000001 3.1117726500000003 2.9086575000000003
2038 1 8.89595805 3.2492355 2.4435043500000004
2772 1 9.49079145 2.54778405 3.2268516000000003
2125 1 10.599490650000002 2.5242577500000003 3.1608066000000004
3696 1 9.98620035 2.7582534 2.21966535
3048 1 12.049499700000002 1.7980126500000002 2.0727420000000003
2482 1 10.7623005 1.8190578000000002 2.2627017000000005
2899 1 11.1840603 3.07125315 2.0658519
2404 1 11.9653905 2.7585568500000006 2.70921945
1726 1 10.9171671 3.5341929000000003 2.99192775
2496 1 13.450367700000001 1.9909711500000002 2.5146723000000004
2048 1 13.43317815 3.0983851500000004 2.3927746500000002
2898 1 13.9160385 2.8642467000000003 3.3321487500000004
3251 1 12.675999000000001 2.7132714 3.5456526000000004
3180 1 15.05178045 3.1030083 1.9356004500000004
2680 1 14.599407900000001 2.3384571000000003 2.56991805
3613 1 15.7327758 2.53471785 2.6736087000000004
2847 1 15.422417850000002 3.4545462000000002 3.0907096500000004
3762 1 16.236199350000003 3.4177752000000003 2.4492877500000003
1045 1 17.6967399 1.9740136500000003 3.3705084000000003
3013 1 16.9235493 3.44274735 3.2690133
730 1 16.809755550000002 2.2640226 2.8198359
3327 1 17.146210200000002 2.9568346500000002 2.0631565500000004
3690 1 1.2517491 3.6246210000000003 1.9261756500000002
481 1 1.51974186 4.356631650000001 2.7436164000000005
613 1 0.979599075 5.251130850000001 2.31116445
3772 1 1.768133535 5.3539825500000005 3.2301003000000006
129 1 0.5874863400000001 4.978722 3.49529775
3254 1 0.173047896 3.9969184500000003 3.15293475
2927 1 2.30698755 4.1506605 1.9292280000000002
3799 1 3.4356609000000002 4.419999150000001 2.20920525
131 1 2.6621847 3.96164685 3.0148650000000004
932 1 2.4608367 5.0984598000000005 2.3430624
963 1 2.9692047 5.24327685 3.3665457
3730 1 3.7487499000000004 3.8054772000000003 3.2047711500000005
2168 1 4.7663784 3.9689475 2.5692219000000005
926 1 3.9902961 5.2398675 2.7764247000000006
1250 1 5.02743465 4.8257118 3.1477761
518 1 6.035906100000001 4.795616700000001 2.67405495
2446 1 6.85452495 3.6302259 3.2763675
2540 1 7.182143850000001 4.443793200000001 2.5528177500000004
1674 1 8.300392800000001 4.3701084 2.2357482
2132 1 7.952210700000001 5.1695742000000005 3.0943332000000003
955 1 10.2628932 3.8230773000000005 1.8097401000000002
2571 1 9.3082395 4.3674666 1.9634821500000001
2477 1 10.45576245 4.7161128 2.6654155500000005
3293 1 9.332676150000001 3.9497587500000004 3.12990825
2094 1 8.94525975 5.3193 2.68101645
1766 1 9.680144250000001 5.0461236000000005 3.5075250000000002
2165 1 11.5962525 4.0772256 2.26700355
2991 1 11.3804103 5.0899989 1.9089504000000002
2559 1 12.028204650000001 3.77725635 3.2597848500000004
2594 1 11.391334500000001 4.957605450000001 3.08731815
2846 1 12.325871250000002 5.27701335 2.33604735
2494 1 12.6752136 4.1588001000000006 2.15440575
2492 1 12.571183800000002 4.8791904 3.3521407500000002
3169 1 13.546561350000001 4.799275950000001 2.7476683500000005
3250 1 13.195291200000002 3.8639181000000002 3.1789065
3373 1 14.314075650000001 3.6938790000000004 2.6389618500000003
2767 1 15.380809500000002 4.08117045 1.95636
2561 1 14.5142991 4.623524850000001 2.3789944500000004
220 1 15.078858900000002 4.5873250500000005 3.2557686
2932 1 17.20963125 4.17684645 2.22930435
2499 1 16.15012665 4.6687389 2.5351462500000004
3332 1 17.69243805 5.028220050000001 2.6425675500000003
566 1 16.993128600000002 4.6148676 3.4028704500000004
571 1 0.06037869600000001 6.563373600000001 2.2129180500000003
2500 1 0.8872449600000001 6.236914950000001 3.0107595
603 1 2.1142968 6.098934450000001 2.4764376
1329 1 3.3001080000000003 5.8745421 2.32940715
850 1 5.0238468 5.393752350000001 2.1366093
1855 1 3.57212415 6.2585313000000005 3.3350940000000002
172 1 4.321485000000001 6.369147750000001 2.37442485
114 1 5.089516950000001 6.913679850000001 2.89286025
555 1 4.76885955 5.8581915 3.4177216500000003
1281 1 5.785095750000001 6.041653800000001 2.7591102
2088 1 6.817557600000001 5.5811059499999995 2.2420671000000003
896 1 6.28910835 6.7369113 2.01713925
962 1 6.9730846500000006 5.7782235 3.2943960000000003
1751 1 6.564926550000001 6.803134800000001 3.09270885
1847 1 8.349266100000001 6.13017195 2.0186208
1327 1 7.50726375 6.663779850000001 2.70989775
2590 1 8.76758085 6.3421764000000005 3.1634841000000002
2198 1 9.508320150000001 6.3262185 1.8676633500000002
2166 1 10.02379245 5.7613731 2.7246775500000004
1793 1 9.784513200000001 6.818932050000001 2.8288501500000005
2510 1 10.7645853 6.059128950000001 1.7936929500000003
2886 1 11.5287438 6.00168765 2.6803024500000006
2486 1 11.965354800000002 6.897793350000001 3.3524442000000003
2526 1 11.684377950000002 6.986936250000001 1.9092538500000003
2205 1 12.579948150000002 6.5079493500000005 2.2397644500000005
2158 1 13.344374400000001 5.792182200000001 2.40312765
3329 1 12.782563500000002 6.0834942000000005 3.4455498
3736 1 13.983779250000001 6.5727091500000006 3.0390339