Position Data

4000 atoms
280 bonds

2 atom types
1 bond types

0.00 17.00 xlo xhi
0.00 17.00 ylo yhi
0.00 17.00 zlo zhi

Atoms

1 0 1 0.0 0.0 0.0
2 1 1 0.0 0.85 0.85
3 2 1 0.85 0.0 0.85
4 3 1 0.85 0.85 0.0
5 4 1 0.0 0.0 1.7
6 4 2 0.0 0.85 2.55
7 5 1 0.85 0.0 2.55
8 6 1 0.85 0.85 1.7
9 7 1 0.0 0.0 3.4
10 8 1 0.0 0.85 4.25
11 9 1 0.85 0.0 4.25
12 10 1 0.85 0.85 3.4
13 11 1 0.0 0.0 5.1
14 12 1 0.0 0.85 5.949999999999999
15 13 1 0.85 0.0 5.949999999999999
16 14 1 0.85 0.85 5.1
17 15 1 0.0 0.0 6.8
18 16 1 0.0 0.85 7.6499999999999995
19 17 1 0.85 0.0 7.6499999999999995
20 18 1 0.85 0.85 6.8
21 19 1 0.0 0.0 8.5
22 20 1 0.0 0.85 9.35
23 21 1 0.85 0.0 9.35
24 22 1 0.85 0.85 8.5
25 23 1 0.0 0.0 10.2
26 24 1 0.0 0.85 11.049999999999999
27 25 1 0.85 0.0 11.049999999999999
28 26 1 0.85 0.85 10.2
29 27 1 0.0 0.0 11.9
30 27 2 0.0 0.85 12.75
31 28 1 0.85 0.0 12.75
32 29 1 0.85 0.85 11.9
33 30 1 0.0 0.0 13.6
34 31 1 0.0 0.85 14.45
35 32 1 0.85 0.0 14.45
36 33 1 0.85 0.85 13.6
37 34 1 0.0 0.0 15.299999999999999
38 35 1 0.0 0.85 16.15
39 36 1 0.85 0.0 16.15
40 37 1 0.85 0.85 15.299999999999999
41 38 1 0.0 1.7 0.0
42 39 1 0.0 2.55 0.85
43 40 1 0.85 1.7 0.85
44 41 1 0.85 2.55 0.0
45 42 1 0.0 1.7 1.7
46 43 1 0.0 2.55 2.55
47 44 1 0.85 1.7 2.55
48 45 1 0.85 2.55 1.7
49 46 1 0.0 1.7 3.4
50 46 2 0.0 2.55 4.25
51 47 1 0.85 1.7 4.25
52 48 1 0.85 2.55 3.4
53 49 1 0.0 1.7 5.1
54 50 1 0.0 2.55 5.949999999999999
55 51 1 0.85 1.7 5.949999999999999
56 52 1 0.85 2.55 5.1
57 53 1 0.0 1.7 6.8
58 54 1 0.0 2.55 7.6499999999999995
59 55 1 0.85 1.7 7.6499999999999995
60 56 1 0.85 2.55 6.8
61 57 1 0.0 1.7 8.5
62 58 1 0.0 2.55 9.35
63 59 1 0.85 1.7 9.35
64 60 1 0.85 2.55 8.5
65 61 1 0.0 1.7 10.2
66 62 1 0.0 2.55 11.049999999999999
67 63 1 0.85 1.7 11.049999999999999
68 64 1 0.85 2.55 10.2
69 65 1 0.0 1.7 11.9
70 66 1 0.0 2.55 12.75
71 67 1 0.85 1.7 12.75
72 68 1 0.85 2.55 11.9
73 69 1 0.0 1.7 13.6
74 69 2 0.0 2.55 14.45
75 70 1 0.85 1.7 14.45
76 71 1 0.85 2.55 13.6
77 72 1 0.0 1.7 15.299999999999999
78 72 2 0.0 2.55 16.15
79 73 1 0.85 1.7 16.15
80 74 1 0.85 2.55 15.299999999999999
81 75 1 0.0 3.4 0.0
82 76 1 0.0 4.25 0.85
83 77 1 0.85 3.4 0.85
84 78 1 0.85 4.25 0.0
85 79 1 0.0 3.4 1.7
86 79 2 0.0 4.25 2.55
87 80 1 0.85 3.4 2.55
88 81 1 0.85 4.25 1.7
89 82 1 0.0 3.4 3.4
90 83 1 0.0 4.25 4.25
91 84 1 0.85 3.4 4.25
92 85 1 0.85 4.25 3.4
93 86 1 0.0 3.4 5.1
94 87 1 0.0 4.25 5.949999999999999
95 88 1 0.85 3.4 5.949999999999999
96 89 1 0.85 4.25 5.1
97 90 1 0.0 3.4 6.8
98 90 2 0.0 4.25 7.6499999999999995
99 91 1 0.85 3.4 7.6499999999999995
100 92 1 0.85 4.25 6.8
101 93 1 0.0 3.4 8.5
102 93 2 0.0 4.25 9.35
103 94 1 0.85 3.4 9.35
104 95 1 0.85 4.25 8.5
105 96 1 0.0 3.4 10.2
106 97 1 0.0 4.25 11.049999999999999
107 98 1 0.85 3.4 11.049999999999999
108 99 1 0.85 4.25 10.2
109 100 1 0.0 3.4 11.9
110 101 1 0.0 4.25 12.75
111 102 1 0.85 3.4 12.75
112 103 1 0.85 4.25 11.9
113 104 1 0.0 3.4 13.6
114 105 1 0.0 4.25 14.45
115 106 1 0.85 3.4 14.45
116 107 1 0.85 4.25 13.6
117 108 1 0.0 3.4 15.299999999999999
118 109 1 0.0 4.25 16.15
119 110 1 0.85 3.4 16.15
120 111 1 0.85 4.25 15.299999999999999
121 112 1 0.0 5.1 0.0
122 112 2 0.0 5.949999999999999 0.85
123 113 1 0.85 5.1 0.85
124 114 1 0.85 5.949999999999999 0.0
125 115 1 0.0 5.1 1.7
126 116 1 0.0 5.949999999999999 2.55
127 117 1 0.85 5.1 2.55
128 118 1 0.85 5.949999999999999 1.7
129 119 1 0.0 5.1 3.4
130 120 1 0.0 5.949999999999999 4.25
131 121 1 0.85 5.1 4.25
132 122 1 0.85 5.949999999999999 3.4
133 123 1 0.0 5.1 5.1
134 124 1 0.0 5.949999999999999 5.949999999999999
135 125 1 0.85 5.1 5.949999999999999
136 126 1 0.85 5.949999999999999 5.1
137 127 1 0.0 5.1 6.8
138 127 2 0.0 5.949999999999999 7.6499999999999995
139 128 1 0.85 5.1 7.6499999999999995
140 129 1 0.85 5.949999999999999 6.8
141 130 1 0.0 5.1 8.5
142 130 2 0.0 5.949999999999999 9.35
143 131 1 0.85 5.1 9.35
144 132 1 0.85 5.949999999999999 8.5
145 133 1 0.0 5.1 10.2
146 134 1 0.0 5.949999999999999 11.049999999999999
147 135 1 0.85 5.1 11.049999999999999
148 136 1 0.85 5.949999999999999 10.2
149 137 1 0.0 5.1 11.9
150 138 1 0.0 5.949999999999999 12.75
151 139 1 0.85 5.1 12.75
152 140 1 0.85 5.949999999999999 11.9
153 141 1 0.0 5.1 13.6
154 142 1 0.0 5.949999999999999 14.45
155 143 1 0.85 5.1 14.45
156 144 1 0.85 5.949999999999999 13.6
157 145 1 0.0 5.1 15.299999999999999
158 146 1 0.0 5.949999999999999 16.15
159 147 1 0.85 5.1 16.15
160 148 1 0.85 5.949999999999999 15.299999999999999
161 149 1 0.0 6.8 0.0
162 150 1 0.0 7.6499999999999995 0.85
163 151 1 0.85 6.8 0.85
164 152 1 0.85 7.6499999999999995 0.0
165 153 1 0.0 6.8 1.7
166 154 1 0.0 7.6499999999999995 2.55
167 155 1 0.85 6.8 2.55
168 156 1 0.85 7.6499999999999995 1.7
169 157 1 0.0 6.8 3.4
170 157 2 0.0 7.6499999999999995 4.25
171 158 1 0.85 6.8 4.25
172 159 1 0.85 7.6499999999999995 3.4
173 160 1 0.0 6.8 5.1
174 160 2 0.0 7.6499999999999995 5.949999999999999
175 161 1 0.85 6.8 5.949999999999999
176 162 1 0.85 7.6499999999999995 5.1
177 163 1 0.0 6.8 6.8
178 164 1 0.0 7.6499999999999995 7.6499999999999995
179 165 1 0.85 6.8 7.6499999999999995
180 166 1 0.85 7.6499999999999995 6.8
181 167 1 0.0 6.8 8.5
182 168 1 0.0 7.6499999999999995 9.35
183 169 1 0.85 6.8 9.35
184 170 1 0.85 7.6499999999999995 8.5
185 171 1 0.0 6.8 10.2
186 171 2 0.0 7.6499999999999995 11.049999999999999
187 172 1 0.85 6.8 11.049999999999999
188 173 1 0.85 7.6499999999999995 10.2
189 174 1 0.0 6.8 11.9
190 175 1 0.0 7.6499999999999995 12.75
191 176 1 0.85 6.8 12.75
192 177 1 0.85 7.6499999999999995 11.9
193 178 1 0.0 6.8 13.6
194 179 1 0.0 7.6499999999999995 14.45
195 180 1 0.85 6.8 14.45
196 181 1 0.85 7.6499999999999995 13.6
197 182 1 0.0 6.8 15.299999999999999
198 183 1 0.0 7.6499999999999995 16.15
199 184 1 0.85 6.8 16.15
200 185 1 0.85 7.6499999999999995 15.299999999999999
201 186 1 0.0 8.5 0.0
202 186 2 0.0 9.35 0.85
203 187 1 0.85 8.5 0.85
204 188 1 0.85 9.35 0.0
205 189 1 0.0 8.5 1.7
206 190 1 0.0 9.35 2.55
207 191 1 0.85 8.5 2.55
208 192 1 0.85 9.35 1.7
209 193 1 0.0 8.5 3.4
210 194 1 0.0 9.35 4.25
211 195 1 0.85 8.5 4.25
212 196 1 0.85 9.35 3.4
213 197 1 0.0 8.5 5.1
214 198 1 0.0 9.35 5.949999999999999
215 199 1 0.85 8.5 5.949999999999999
216 200 1 0.85 9.35 5.1
217 201 1 0.0 8.5 6.8
218 202 1 0.0 9.35 7.6499999999999995
219 203 1 0.85 8.5 7.6499999999999995
220 204 1 0.85 9.35 6.8
221 205 1 0.0 8.5 8.5
222 206 1 0.0 9.35 9.35
223 207 1 0.85 8.5 9.35
224 208 1 0.85 9.35 8.5
225 209 1 0.0 8.5 10.2
226 209 2 0.0 9.35 11.049999999999999
227 210 1 0.85 8.5 11.049999999999999
228 211 1 0.85 9.35 10.2
229 212 1 0.0 8.5 11.9
230 213 1 0.0 9.35 12.75
231 214 1 0.85 8.5 12.75
232 215 1 0.85 9.35 11.9
233 216 1 0.0 8.5 13.6
234 217 1 0.0 9.35 14.45
235 218 1 0.85 8.5 14.45
236 219 1 0.85 9.35 13.6
237 220 1 0.0 8.5 15.299999999999999
238 221 1 0.0 9.35 16.15
239 222 1 0.85 8.5 16.15
240 223 1 0.85 9.35 15.299999999999999
241 224 1 0.0 10.2 0.0
242 224 2 0.0 11.049999999999999 0.85
243 225 1 0.85 10.2 0.85
244 226 1 0.85 11.049999999999999 0.0
245 227 1 0.0 10.2 1.7
246 228 1 0.0 11.049999999999999 2.55
247 229 1 0.85 10.2 2.55
248 230 1 0.85 11.049999999999999 1.7
249 231 1 0.0 10.2 3.4
250 231 2 0.0 11.049999999999999 4.25
251 232 1 0.85 10.2 4.25
252 233 1 0.85 11.049999999999999 3.4
253 234 1 0.0 10.2 5.1
254 235 1 0.0 11.049999999999999 5.949999999999999
255 236 1 0.85 10.2 5.949999999999999
256 237 1 0.85 11.049999999999999 5.1
257 238 1 0.0 10.2 6.8
258 239 1 0.0 11.049999999999999 7.6499999999999995
259 240 1 0.85 10.2 7.6499999999999995
260 241 1 0.85 11.049999999999999 6.8
261 242 1 0.0 10.2 8.5
262 243 1 0.0 11.049999999999999 9.35
263 244 1 0.85 10.2 9.35
264 245 1 0.85 11.049999999999999 8.5
265 246 1 0.0 10.2 10.2
266 247 1 0.0 11.049999999999999 11.049999999999999
267 248 1 0.85 10.2 11.049999999999999
268 249 1 0.85 11.049999999999999 10.2
269 250 1 0.0 10.2 11.9
270 251 1 0.0 11.049999999999999 12.75
271 252 1 0.85 10.2 12.75
272 253 1 0.85 11.049999999999999 11.9
273 254 1 0.0 10.2 13.6
274 255 1 0.0 11.049999999999999 14.45
275 256 1 0.85 10.2 14.45
276 257 1 0.85 11.049999999999999 13.6
277 258 1 0.0 10.2 15.299999999999999
278 259 1 0.0 11.049999999999999 16.15
279 260 1 0.85 10.2 16.15
280 261 1 0.85 11.049999999999999 15.299999999999999
281 262 1 0.0 11.9 0.0
282 263 1 0.0 12.75 0.85
283 264 1 0.85 11.9 0.85
284 265 1 0.85 12.75 0.0
285 266 1 0.0 11.9 1.7
286 267 1 0.0 12.75 2.55
287 268 1 0.85 11.9 2.55
288 269 1 0.85 12.75 1.7
289 270 1 0.0 11.9 3.4
290 271 1 0.0 12.75 4.25
291 272 1 0.85 11.9 4.25
292 273 1 0.85 12.75 3.4
293 274 1 0.0 11.9 5.1
294 274 2 0.0 12.75 5.949999999999999
295 275 1 0.85 11.9 5.949999999999999
296 276 1 0.85 12.75 5.1
297 277 1 0.0 11.9 6.8
298 278 1 0.0 12.75 7.6499999999999995
299 279 1 0.85 11.9 7.6499999999999995
300 280 1 0.85 12.75 6.8
301 281 1 0.0 11.9 8.5
302 282 1 0.0 12.75 9.35
303 283 1 0.85 11.9 9.35
304 284 1 0.85 12.75 8.5
305 285 1 0.0 11.9 10.2
306 285 2 0.0 12.75 11.049999999999999
307 286 1 0.85 11.9 11.049999999999999
308 287 1 0.85 12.75 10.2
309 288 1 0.0 11.9 11.9
310 289 1 0.0 12.75 12.75
311 290 1 0.85 11.9 12.75
312 291 1 0.85 12.75 11.9
313 292 1 0.0 11.9 13.6
314 293 1 0.0 12.75 14.45
315 294 1 0.85 11.9 14.45
316 295 1 0.85 12.75 13.6
317 296 1 0.0 11.9 15.299999999999999
318 296 2 0.0 12.75 16.15
319 297 1 0.85 11.9 16.15
320 298 1 0.85 12.75 15.299999999999999
321 299 1 0.0 13.6 0.0
322 300 1 0.0 14.45 0.85
323 301 1 0.85 13.6 0.85
324 302 1 0.85 14.45 0.0
325 303 1 0.0 13.6 1.7
326 303 2 0.0 14.45 2.55
327 304 1 0.85 13.6 2.55
328 305 1 0.85 14.45 1.7
329 306 1 0.0 13.6 3.4
330 306 2 0.0 14.45 4.25
331 307 1 0.85 13.6 4.25
332 308 1 0.85 14.45 3.4
333 309 1 0.0 13.6 5.1
334 309 2 0.0 14.45 5.949999999999999
335 310 1 0.85 13.6 5.949999999999999
336 311 1 0.85 14.45 5.1
337 312 1 0.0 13.6 6.8
338 313 1 0.0 14.45 7.6499999999999995
339 314 1 0.85 13.6 7.6499999999999995
340 315 1 0.85 14.45 6.8
341 316 1 0.0 13.6 8.5
342 317 1 0.0 14.45 9.35
343 318 1 0.85 13.6 9.35
344 319 1 0.85 14.45 8.5
345 320 1 0.0 13.6 10.2
346 321 1 0.0 14.45 11.049999999999999
347 322 1 0.85 13.6 11.049999999999999
348 323 1 0.85 14.45 10.2
349 324 1 0.0 13.6 11.9
350 325 1 0.0 14.45 12.75
351 326 1 0.85 13.6 12.75
352 327 1 0.85 14.45 11.9
353 328 1 0.0 13.6 13.6
354 329 1 0.0 14.45 14.45
355 330 1 0.85 13.6 14.45
356 331 1 0.85 14.45 13.6
357 332 1 0.0 13.6 15.299999999999999
358 333 1 0.0 14.45 16.15
359 334 1 0.85 13.6 16.15
360 335 1 0.85 14.45 15.299999999999999
361 336 1 0.0 15.299999999999999 0.0
362 336 2 0.0 16.15 0.85
363 337 1 0.85 15.299999999999999 0.85
364 338 1 0.85 16.15 0.0
365 339 1 0.0 15.299999999999999 1.7
366 339 2 0.0 16.15 2.55
367 340 1 0.85 15.299999999999999 2.55
368 341 1 0.85 16.15 1.7
369 342 1 0.0 15.299999999999999 3.4
370 343 1 0.0 16.15 4.25
371 344 1 0.85 15.299999999999999 4.25
372 345 1 0.85 16.15 3.4
373 346 1 0.0 15.299999999999999 5.1
374 346 2 0.0 16.15 5.949999999999999
375 347 1 0.85 15.299999999999999 5.949999999999999
376 348 1 0.85 16.15 5.1
377 349 1 0.0 15.299999999999999 6.8
378 350 1 0.0 16.15 7.6499999999999995
379 351 1 0.85 15.299999999999999 7.6499999999999995
380 352 1 0.85 16.15 6.8
381 353 1 0.0 15.299999999999999 8.5
382 354 1 0.0 16.15 9.35
383 355 1 0.85 15.299999999999999 9.35
384 356 1 0.85 16.15 8.5
385 357 1 0.0 15.299999999999999 10.2
386 358 1 0.0 16.15 11.049999999999999
387 359 1 0.85 15.299999999999999 11.049999999999999
388 360 1 0.85 16.15 10.2
389 361 1 0.0 15.299999999999999 11.9
390 362 1 0.0 16.15 12.75
391 363 1 0.85 15.299999999999999 12.75
392 364 1 0.85 16.15 11.9
393 365 1 0.0 15.299999999999999 13.6
394 366 1 0.0 16.15 14.45
395 367 1 0.85 15.299999999999999 14.45
396 368 1 0.85 16.15 13.6
397 369 1 0.0 15.299999999999999 15.299999999999999
398 370 1 0.0 16.15 16.15
399 371 1 0.85 15.299999999999999 16.15
400 372 1 0.85 16.15 15.299999999999999
401 373 1 1.7 0.0 0.0
402 374 1 1.7 0.85 0.85
403 375 1 2.55 0.0 0.85
404 376 1 2.55 0.85 0.0
405 377 1 1.7 0.0 1.7
406 378 1 1.7 0.85 2.55
407 379 1 2.55 0.0 2.55
408 380 1 2.55 0.85 1.7
409 381 1 1.7 0.0 3.4
410 382 1 1.7 0.85 4.25
411 383 1 2.55 0.0 4.25
412 384 1 2.55 0.85 3.4
413 385 1 1.7 0.0 5.1
414 385 2 1.7 0.85 5.949999999999999
415 386 1 2.55 0.0 5.949999999999999
416 387 1 2.55 0.85 5.1
417 388 1 1.7 0.0 6.8
418 389 1 1.7 0.85 7.6499999999999995
419 390 1 2.55 0.0 7.6499999999999995
420 391 1 2.55 0.85 6.8
421 392 1 1.7 0.0 8.5
422 393 1 1.7 0.85 9.35
423 394 1 2.55 0.0 9.35
424 395 1 2.55 0.85 8.5
425 396 1 1.7 0.0 10.2
426 397 1 1.7 0.85 11.049999999999999
427 398 1 2.55 0.0 11.049999999999999
428 399 1 2.55 0.85 10.2
429 400 1 1.7 0.0 11.9
430 401 1 1.7 0.85 12.75
431 402 1 2.55 0.0 12.75
432 403 1 2.55 0.85 11.9
433 404 1 1.7 0.0 13.6
434 405 1 1.7 0.85 14.45
435 406 1 2.55 0.0 14.45
436 407 1 2.55 0.85 13.6
437 408 1 1.7 0.0 15.299999999999999
438 409 1 1.7 0.85 16.15
439 410 1 2.55 0.0 16.15
440 411 1 2.55 0.85 15.299999999999999
441 412 1 1.7 1.7 0.0
442 413 1 1.7 2.55 0.85
443 414 1 2.55 1.7 0.85
444 415 1 2.55 2.55 0.0
445 416 1 1.7 1.7 1.7
446 417 1 1.7 2.55 2.55
447 418 1 2.55 1.7 2.55
448 419 1 2.55 2.55 1.7
449 420 1 1.7 1.7 3.4
450 420 2 1.7 2.55 4.25
451 421 1 2.55 1.7 4.25
452 422 1 2.55 2.55 3.4
453 423 1 1.7 1.7 5.1
454 424 1 1.7 2.55 5.949999999999999
455 425 1 2.55 1.7 5.949999999999999
456 426 1 2.55 2.55 5.1
457 427 1 1.7 1.7 6.8
458 427 2 1.7 2.55 7.6499999999999995
459 428 1 2.55 1.7 7.6499999999999995
460 429 1 2.55 2.55 6.8
461 430 1 1.7 1.7 8.5
462 431 1 1.7 2.55 9.35
463 432 1 2.55 1.7 9.35
464 433 1 2.55 2.55 8.5
465 434 1 1.7 1.7 10.2
466 435 1 1.7 2.55 11.049999999999999
467 436 1 2.55 1.7 11.049999999999999
468 437 1 2.55 2.55 10.2
469 438 1 1.7 1.7 11.9
470 438 2 1.7 2.55 12.75
471 439 1 2.55 1.7 12.75
472 440 1 2.55 2.55 11.9
473 441 1 1.7 1.7 13.6
474 441 2 1.7 2.55 14.45
475 442 1 2.55 1.7 14.45
476 443 1 2.55 2.55 13.6
477 444 1 1.7 1.7 15.299999999999999
478 445 1 1.7 2.55 16.15
479 446 1 2.55 1.7 16.15
480 447 1 2.55 2.55 15.299999999999999
481 448 1 1.7 3.4 0.0
482 448 2 1.7 4.25 0.85
483 449 1 2.55 3.4 0.85
484 450 1 2.55 4.25 0.0
485 451 1 1.7 3.4 1.7
486 452 1 1.7 4.25 2.55
487 453 1 2.55 3.4 2.55
488 454 1 2.55 4.25 1.7
489 455 1 1.7 3.4 3.4
490 455 2 1.7 4.25 4.25
491 456 1 2.55 3.4 4.25
492 457 1 2.55 4.25 3.4
493 458 1 1.7 3.4 5.1
494 459 1 1.7 4.25 5.949999999999999
495 460 1 2.55 3.4 5.949999999999999
496 461 1 2.55 4.25 5.1
497 462 1 1.7 3.4 6.8
498 463 1 1.7 4.25 7.6499999999999995
499 464 1 2.55 3.4 7.6499999999999995
500 465 1 2.55 4.25 6.8
501 466 1 1.7 3.4 8.5
502 467 1 1.7 4.25 9.35
503 468 1 2.55 3.4 9.35
504 469 1 2.55 4.25 8.5
505 470 1 1.7 3.4 10.2
506 471 1 1.7 4.25 11.049999999999999
507 472 1 2.55 3.4 11.049999999999999
508 473 1 2.55 4.25 10.2
509 474 1 1.7 3.4 11.9
510 474 2 1.7 4.25 12.75
511 475 1 2.55 3.4 12.75
512 476 1 2.55 4.25 11.9
513 477 1 1.7 3.4 13.6
514 477 2 1.7 4.25 14.45
515 478 1 2.55 3.4 14.45
516 479 1 2.55 4.25 13.6
517 480 1 1.7 3.4 15.299999999999999
518 480 2 1.7 4.25 16.15
519 481 1 2.55 3.4 16.15
520 482 1 2.55 4.25 15.299999999999999
521 483 1 1.7 5.1 0.0
522 484 1 1.7 5.949999999999999 0.85
523 485 1 2.55 5.1 0.85
524 486 1 2.55 5.949999999999999 0.0
525 487 1 1.7 5.1 1.7
526 488 1 1.7 5.949999999999999 2.55
527 489 1 2.55 5.1 2.55
528 490 1 2.55 5.949999999999999 1.7
529 491 1 1.7 5.1 3.4
530 492 1 1.7 5.949999999999999 4.25
531 493 1 2.55 5.1 4.25
532 494 1 2.55 5.949999999999999 3.4
533 495 1 1.7 5.1 5.1
534 496 1 1.7 5.949999999999999 5.949999999999999
535 497 1 2.55 5.1 5.949999999999999
536 498 1 2.55 5.949999999999999 5.1
537 499 1 1.7 5.1 6.8
538 500 1 1.7 5.949999999999999 7.6499999999999995
539 501 1 2.55 5.1 7.6499999999999995
540 502 1 2.55 5.949999999999999 6.8
541 503 1 1.7 5.1 8.5
542 504 1 1.7 5.949999999999999 9.35
543 505 1 2.55 5.1 9.35
544 506 1 2.55 5.949999999999999 8.5
545 507 1 1.7 5.1 10.2
546 508 1 1.7 5.949999999999999 11.049999999999999
547 509 1 2.55 5.1 11.049999999999999
548 510 1 2.55 5.949999999999999 10.2
549 511 1 1.7 5.1 11.9
550 512 1 1.7 5.949999999999999 12.75
551 513 1 2.55 5.1 12.75
552 514 1 2.55 5.949999999999999 11.9
553 515 1 1.7 5.1 13.6
554 515 2 1.7 5.949999999999999 14.45
555 516 1 2.55 5.1 14.45
556 517 1 2.55 5.949999999999999 13.6
557 518 1 1.7 5.1 15.299999999999999
558 519 1 1.7 5.949999999999999 16.15
559 520 1 2.55 5.1 16.15
560 521 1 2.55 5.949999999999999 15.299999999999999
561 522 1 1.7 6.8 0.0
562 522 2 1.7 7.6499999999999995 0.85
563 523 1 2.55 6.8 0.85
564 524 1 2.55 7.6499999999999995 0.0
565 525 1 1.7 6.8 1.7
566 526 1 1.7 7.6499999999999995 2.55
567 527 1 2.55 6.8 2.55
568 528 1 2.55 7.6499999999999995 1.7
569 529 1 1.7 6.8 3.4
570 530 1 1.7 7.6499999999999995 4.25
571 531 1 2.55 6.8 4.25
572 532 1 2.55 7.6499999999999995 3.4
573 533 1 1.7 6.8 5.1
574 534 1 1.7 7.6499999999999995 5.949999999999999
575 535 1 2.55 6.8 5.949999999999999
576 536 1 2.55 7.6499999999999995 5.1
577 537 1 1.7 6.8 6.8
578 538 1 1.7 7.6499999999999995 7.6499999999999995
579 539 1 2.55 6.8 7.6499999999999995
580 540 1 2.55 7.6499999999999995 6.8
581 541 1 1.7 6.8 8.5
582 542 1 1.7 7.6499999999999995 9.35
583 543 1 2.55 6.8 9.35
584 544 1 2.55 7.6499999999999995 8.5
585 545 1 1.7 6.8 10.2
586 546 1 1.7 7.6499999999999995 11.049999999999999
587 547 1 2.55 6.8 11.049999999999999
588 548 1 2.55 7.6499999999999995 10.2
589 549 1 1.7 6.8 11.9
590 550 1 1.7 7.6499999999999995 12.75
591 551 1 2.55 6.8 12.75
592 552 1 2.55 7.6499999999999995 11.9
593 553 1 1.7 6.8 13.6
594 553 2 1.7 7.6499999999999995 14.45
595 554 1 2.55 6.8 14.45
596 555 1 2.55 7.6499999999999995 13.6
597 556 1 1.7 6.8 15.299999999999999
598 556 2 1.7 7.6499999999999995 16.15
599 557 1 2.55 6.8 16.15
600 558 1 2.55 7.6499999999999995 15.299999999999999
601 559 1 1.7 8.5 0.0
602 559 2 1.7 9.35 0.85
603 560 1 2.55 8.5 0.85
604 561 1 2.55 9.35 0.0
605 562 1 1.7 8.5 1.7
606 563 1 1.7 9.35 2.55
607 564 1 2.55 8.5 2.55
608 565 1 2.55 9.35 1.7
609 566 1 1.7 8.5 3.4
610 567 1 1.7 9.35 4.25
611 568 1 2.55 8.5 4.25
612 569 1 2.55 9.35 3.4
613 570 1 1.7 8.5 5.1
614 571 1 1.7 9.35 5.949999999999999
615 572 1 2.55 8.5 5.949999999999999
616 573 1 2.55 9.35 5.1
617 574 1 1.7 8.5 6.8
618 575 1 1.7 9.35 7.6499999999999995
619 576 1 2.55 8.5 7.6499999999999995
620 577 1 2.55 9.35 6.8
621 578 1 1.7 8.5 8.5
622 579 1 1.7 9.35 9.35
623 580 1 2.55 8.5 9.35
624 581 1 2.55 9.35 8.5
625 582 1 1.7 8.5 10.2
626 583 1 1.7 9.35 11.049999999999999
627 584 1 2.55 8.5 11.049999999999999
628 585 1 2.55 9.35 10.2
629 586 1 1.7 8.5 11.9
630 586 2 1.7 9.35 12.75
631 587 1 2.55 8.5 12.75
632 588 1 2.55 9.35 11.9
633 589 1 1.7 8.5 13.6
634 590 1 1.7 9.35 14.45
635 591 1 2.55 8.5 14.45
636 592 1 2.55 9.35 13.6
637 593 1 1.7 8.5 15.299999999999999
638 594 1 1.7 9.35 16.15
639 595 1 2.55 8.5 16.15
640 596 1 2.55 9.35 15.299999999999999
641 597 1 1.7 10.2 0.0
642 597 2 1.7 11.049999999999999 0.85
643 598 1 2.55 10.2 0.85
644 599 1 2.55 11.049999999999999 0.0
645 600 1 1.7 10.2 1.7
646 601 1 1.7 11.049999999999999 2.55
647 602 1 2.55 10.2 2.55
648 603 1 2.55 11.049999999999999 1.7
649 604 1 1.7 10.2 3.4
650 605 1 1.7 11.049999999999999 4.25
651 606 1 2.55 10.2 4.25
652 607 1 2.55 11.049999999999999 3.4
653 608 1 1.7 10.2 5.1
654 609 1 1.7 11.049999999999999 5.949999999999999
655 610 1 2.55 10.2 5.949999999999999
656 611 1 2.55 11.049999999999999 5.1
657 612 1 1.7 10.2 6.8
658 613 1 1.7 11.049999999999999 7.6499999999999995
659 614 1 2.55 10.2 7.6499999999999995
660 615 1 2.55 11.049999999999999 6.8
661 616 1 1.7 10.2 8.5
662 616 2 1.7 11.049999999999999 9.35
663 617 1 2.55 10.2 9.35
664 618 1 2.55 11.049999999999999 8.5
665 619 1 1.7 10.2 10.2
666 620 1 1.7 11.049999999999999 11.049999999999999
667 621 1 2.55 10.2 11.049999999999999
668 622 1 2.55 11.049999999999999 10.2
669 623 1 1.7 10.2 11.9
670 624 1 1.7 11.049999999999999 12.75
671 625 1 2.55 10.2 12.75
672 626 1 2.55 11.049999999999999 11.9
673 627 1 1.7 10.2 13.6
674 628 1 1.7 11.049999999999999 14.45
675 629 1 2.55 10.2 14.45
676 630 1 2.55 11.049999999999999 13.6
677 631 1 1.7 10.2 15.299999999999999
678 632 1 1.7 11.049999999999999 16.15
679 633 1 2.55 10.2 16.15
680 634 1 2.55 11.049999999999999 15.299999999999999
681 635 1 1.7 11.9 0.0
682 636 1 1.7 12.75 0.85
683 637 1 2.55 11.9 0.85
684 638 1 2.55 12.75 0.0
685 639 1 1.7 11.9 1.7
686 640 1 1.7 12.75 2.55
687 641 1 2.55 11.9 2.55
688 642 1 2.55 12.75 1.7
689 643 1 1.7 11.9 3.4
690 644 1 1.7 12.75 4.25
691 645 1 2.55 11.9 4.25
692 646 1 2.55 12.75 3.4
693 647 1 1.7 11.9 5.1
694 647 2 1.7 12.75 5.949999999999999
695 648 1 2.55 11.9 5.949999999999999
696 649 1 2.55 12.75 5.1
697 650 1 1.7 11.9 6.8
698 650 2 1.7 12.75 7.6499999999999995
699 651 1 2.55 11.9 7.6499999999999995
700 652 1 2.55 12.75 6.8
701 653 1 1.7 11.9 8.5
702 654 1 1.7 12.75 9.35
703 655 1 2.55 11.9 9.35
704 656 1 2.55 12.75 8.5
705 657 1 1.7 11.9 10.2
706 658 1 1.7 12.75 11.049999999999999
707 659 1 2.55 11.9 11.049999999999999
708 660 1 2.55 12.75 10.2
709 661 1 1.7 11.9 11.9
710 662 1 1.7 12.75 12.75
711 663 1 2.55 11.9 12.75
712 664 1 2.55 12.75 11.9
713 665 1 1.7 11.9 13.6
714 666 1 1.7 12.75 14.45
715 667 1 2.55 11.9 14.45
716 668 1 2.55 12.75 13.6
717 669 1 1.7 11.9 15.299999999999999
718 670 1 1.7 12.75 16.15
719 671 1 2.55 11.9 16.15
720 672 1 2.55 12.75 15.299999999999999
721 673 1 1.7 13.6 0.0
722 673 2 1.7 14.45 0.85
723 674 1 2.55 13.6 0.85
724 675 1 2.55 14.45 0.0
725 676 1 1.7 13.6 1.7
726 677 1 1.7 14.45 2.55
727 678 1 2.55 13.6 2.55
728 679 1 2.55 14.45 1.7
729 680 1 1.7 13.6 3.4
730 681 1 1.7 14.45 4.25
731 682 1 2.55 13.6 4.25
732 683 1 2.55 14.45 3.4
733 684 1 1.7 13.6 5.1
734 685 1 1.7 14.45 5.949999999999999
735 686 1 2.55 13.6 5.949999999999999
736 687 1 2.55 14.45 5.1
737 688 1 1.7 13.6 6.8
738 689 1 1.7 14.45 7.6499999999999995
739 690 1 2.55 13.6 7.6499999999999995
740 691 1 2.55 14.45 6.8
741 692 1 1.7 13.6 8.5
742 692 2 1.7 14.45 9.35
743 693 1 2.55 13.6 9.35
744 694 1 2.55 14.45 8.5
745 695 1 1.7 13.6 10.2
746 695 2 1.7 14.45 11.049999999999999
747 696 1 2.55 13.6 11.049999999999999
748 697 1 2.55 14.45 10.2
749 698 1 1.7 13.6 11.9
750 699 1 1.7 14.45 12.75
751 700 1 2.55 13.6 12.75
752 701 1 2.55 14.45 11.9
753 702 1 1.7 13.6 13.6
754 703 1 1.7 14.45 14.45
755 704 1 2.55 13.6 14.45
756 705 1 2.55 14.45 13.6
757 706 1 1.7 13.6 15.299999999999999
758 707 1 1.7 14.45 16.15
759 708 1 2.55 13.6 16.15
760 709 1 2.55 14.45 15.299999999999999
761 710 1 1.7 15.299999999999999 0.0
762 710 2 1.7 16.15 0.85
763 711 1 2.55 15.299999999999999 0.85
764 712 1 2.55 16.15 0.0
765 713 1 1.7 15.299999999999999 1.7
766 714 1 1.7 16.15 2.55
767 715 1 2.55 15.299999999999999 2.55
768 716 1 2.55 16.15 1.7
769 717 1 1.7 15.299999999999999 3.4
770 718 1 1.7 16.15 4.25
771 719 1 2.55 15.299999999999999 4.25
772 720 1 2.55 16.15 3.4
773 721 1 1.7 15.299999999999999 5.1
774 722 1 1.7 16.15 5.949999999999999
775 723 1 2.55 15.299999999999999 5.949999999999999
776 724 1 2.55 16.15 5.1
777 725 1 1.7 15.299999999999999 6.8
778 726 1 1.7 16.15 7.6499999999999995
779 727 1 2.55 15.299999999999999 7.6499999999999995
780 728 1 2.55 16.15 6.8
781 729 1 1.7 15.299999999999999 8.5
782 730 1 1.7 16.15 9.35
783 731 1 2.55 15.299999999999999 9.35
784 732 1 2.55 16.15 8.5
785 733 1 1.7 15.299999999999999 10.2
786 733 2 1.7 16.15 11.049999999999999
787 734 1 2.55 15.299999999999999 11.049999999999999
788 735 1 2.55 16.15 10.2
789 736 1 1.7 15.299999999999999 11.9
790 737 1 1.7 16.15 12.75
791 738 1 2.55 15.299999999999999 12.75
792 739 1 2.55 16.15 11.9
793 740 1 1.7 15.299999999999999 13.6
794 741 1 1.7 16.15 14.45
795 742 1 2.55 15.299999999999999 14.45
796 743 1 2.55 16.15 13.6
797 744 1 1.7 15.299999999999999 15.299999999999999
798 745 1 1.7 16.15 16.15
799 746 1 2.55 15.299999999999999 16.15
800 747 1 2.55 16.15 15.299999999999999
801 748 1 3.4 0.0 0.0
802 749 1 3.4 0.85 0.85
803 750 1 4.25 0.0 0.85
804 751 1 4.25 0.85 0.0
805 752 1 3.4 0.0 1.7
806 752 2 3.4 0.85 2.55
807 753 1 4.25 0.0 2.55
808 754 1 4.25 0.85 1.7
809 755 1 3.4 0.0 3.4
810 756 1 3.4 0.85 4.25
811 757 1 4.25 0.0 4.25
812 758 1 4.25 0.85 3.4
813 759 1 3.4 0.0 5.1
814 760 1 3.4 0.85 5.949999999999999
815 761 1 4.25 0.0 5.949999999999999
816 762 1 4.25 0.85 5.1
817 763 1 3.4 0.0 6.8
818 763 2 3.4 0.85 7.6499999999999995
819 764 1 4.25 0.0 7.6499999999999995
820 765 1 4.25 0.85 6.8
821 766 1 3.4 0.0 8.5
822 766 2 3.4 0.85 9.35
823 767 1 4.25 0.0 9.35
824 768 1 4.25 0.85 8.5
825 769 1 3.4 0.0 10.2
826 769 2 3.4 0.85 11.049999999999999
827 770 1 4.25 0.0 11.049999999999999
828 771 1 4.25 0.85 10.2
829 772 1 3.4 0.0 11.9
830 772 2 3.4 0.85 12.75
831 773 1 4.25 0.0 12.75
832 774 1 4.25 0.85 11.9
833 775 1 3.4 0.0 13.6
834 776 1 3.4 0.85 14.45
835 777 1 4.25 0.0 14.45
836 778 1 4.25 0.85 13.6
837 779 1 3.4 0.0 15.299999999999999
838 780 1 3.4 0.85 16.15
839 781 1 4.25 0.0 16.15
840 782 1 4.25 0.85 15.299999999999999
841 783 1 3.4 1.7 0.0
842 784 1 3.4 2.55 0.85
843 785 1 4.25 1.7 0.85
844 786 1 4.25 2.55 0.0
845 787 1 3.4 1.7 1.7
846 788 1 3.4 2.55 2.55
847 789 1 4.25 1.7 2.55
848 790 1 4.25 2.55 1.7
849 791 1 3.4 1.7 3.4
850 792 1 3.4 2.55 4.25
851 793 1 4.25 1.7 4.25
852 794 1 4.25 2.55 3.4
853 795 1 3.4 1.7 5.1
854 796 1 3.4 2.55 5.949999999999999
855 797 1 4.25 1.7 5.949999999999999
856 798 1 4.25 2.55 5.1
857 799 1 3.4 1.7 6.8
858 800 1 3.4 2.55 7.6499999999999995
859 801 1 4.25 1.7 7.6499999999999995
860 802 1 4.25 2.55 6.8
861 803 1 3.4 1.7 8.5
862 803 2 3.4 2.55 9.35
863 804 1 4.25 1.7 9.35
864 805 1 4.25 2.55 8.5
865 806 1 3.4 1.7 10.2
866 807 1 3.4 2.55 11.049999999999999
867 808 1 4.25 1.7 11.049999999999999
868 809 1 4.25 2.55 10.2
869 810 1 3.4 1.7 11.9
870 811 1 3.4 2.55 12.75
871 812 1 4.25 1.7 12.75
872 813 1 4.25 2.55 11.9
873 814 1 3.4 1.7 13.6
874 815 1 3.4 2.55 14.45
875 816 1 4.25 1.7 14.45
876 817 1 4.25 2.55 13.6
877 818 1 3.4 1.7 15.299999999999999
878 818 2 3.4 2.55 16.15
879 819 1 4.25 1.7 16.15
880 820 1 4.25 2.55 15.299999999999999
881 821 1 3.4 3.4 0.0
882 821 2 3.4 4.25 0.85
883 822 1 4.25 3.4 0.85
884 823 1 4.25 4.25 0.0
885 824 1 3.4 3.4 1.7
886 825 1 3.4 4.25 2.55
887 826 1 4.25 3.4 2.55
888 827 1 4.25 4.25 1.7
889 828 1 3.4 3.4 3.4
890 829 1 3.4 4.25 4.25
891 830 1 4.25 3.4 4.25
892 831 1 4.25 4.25 3.4
893 832 1 3.4 3.4 5.1
894 832 2 3.4 4.25 5.949999999999999
895 833 1 4.25 3.4 5.949999999999999
896 834 1 4.25 4.25 5.1
897 835 1 3.4 3.4 6.8
898 836 1 3.4 4.25 7.6499999999999995
899 837 1 4.25 3.4 7.6499999999999995
900 838 1 4.25 4.25 6.8
901 839 1 3.4 3.4 8.5
902 839 2 3.4 4.25 9.35
903 840 1 4.25 3.4 9.35
904 841 1 4.25 4.25 8.5
905 842 1 3.4 3.4 10.2
906 843 1 3.4 4.25 11.049999999999999
907 844 1 4.25 3.4 11.049999999999999
908 845 1 4.25 4.25 10.2
909 846 1 3.4 3.4 11.9
910 847 1 3.4 4.25 12.75
911 848 1 4.25 3.4 12.75
912 849 1 4.25 4.25 11.9
913 850 1 3.4 3.4 13.6
914 851 1 3.4 4.25 14.45
915 852 1 4.25 3.4 14.45
916 853 1 4.25 4.25 13.6
917 854 1 3.4 3.4 15.299999999999999
918 855 1 3.4 4.25 16.15
919 856 1 4.25 3.4 16.15
920 857 1 4.25 4.25 15.299999999999999
921 858 1 3.4 5.1 0.0
922 859 1 3.4 5.949999999999999 0.85
923 860 1 4.25 5.1 0.85
924 861 1 4.25 5.949999999999999 0.0
925 862 1 3.4 5.1 1.7
926 863 1 3.4 5.949999999999999 2.55
927 864 1 4.25 5.1 2.55
928 865 1 4.25 5.949999999999999 1.7
929 866 1 3.4 5.1 3.4
930 867 1 3.4 5.949999999999999 4.25
931 868 1 4.25 5.1 4.25
932 869 1 4.25 5.949999999999999 3.4
933 870 1 3.4 5.1 5.1
934 871 1 3.4 5.949999999999999 5.949999999999999
935 872 1 4.25 5.1 5.949999999999999
936 873 1 4.25 5.949999999999999 5.1
937 874 1 3.4 5.1 6.8
938 874 2 3.4 5.949999999999999 7.6499999999999995
939 875 1 4.25 5.1 7.6499999999999995
940 876 1 4.25 5.949999999999999 6.8
941 877 1 3.4 5.1 8.5
942 878 1 3.4 5.949999999999999 9.35
943 879 1 4.25 5.1 9.35
944 880 1 4.25 5.949999999999999 8.5
945 881 1 3.4 5.1 10.2
946 881 2 3.4 5.949999999999999 11.049999999999999
947 882 1 4.25 5.1 11.049999999999999
948 883 1 4.25 5.949999999999999 10.2
949 884 1 3.4 5.1 11.9
950 885 1 3.4 5.949999999999999 12.75
951 886 1 4.25 5.1 12.75
952 887 1 4.25 5.949999999999999 11.9
953 888 1 3.4 5.1 13.6
954 889 1 3.4 5.949999999999999 14.45
955 890 1 4.25 5.1 14.45
956 891 1 4.25 5.949999999999999 13.6
957 892 1 3.4 5.1 15.299999999999999
958 892 2 3.4 5.949999999999999 16.15
959 893 1 4.25 5.1 16.15
960 894 1 4.25 5.949999999999999 15.299999999999999
961 895 1 3.4 6.8 0.0
962 896 1 3.4 7.6499999999999995 0.85
963 897 1 4.25 6.8 0.85
964 898 1 4.25 7.6499999999999995 0.0
965 899 1 3.4 6.8 1.7
966 900 1 3.4 7.6499999999999995 2.55
967 901 1 4.25 6.8 2.55
968 902 1 4.25 7.6499999999999995 1.7
969 903 1 3.4 6.8 3.4
970 904 1 3.4 7.6499999999999995 4.25
971 905 1 4.25 6.8 4.25
972 906 1 4.25 7.6499999999999995 3.4
973 907 1 3.4 6.8 5.1
974 907 2 3.4 7.6499999999999995 5.949999999999999
975 908 1 4.25 6.8 5.949999999999999
976 909 1 4.25 7.6499999999999995 5.1
977 910 1 3.4 6.8 6.8
978 910 2 3.4 7.6499999999999995 7.6499999999999995
979 911 1 4.25 6.8 7.6499999999999995
980 912 1 4.25 7.6499999999999995 6.8
981 913 1 3.4 6.8 8.5
982 914 1 3.4 7.6499999999999995 9.35
983 915 1 4.25 6.8 9.35
984 916 1 4.25 7.6499999999999995 8.5
985 917 1 3.4 6.8 10.2
986 918 1 3.4 7.6499999999999995 11.049999999999999
987 919 1 4.25 6.8 11.049999999999999
988 920 1 4.25 7.6499999999999995 10.2
989 921 1 3.4 6.8 11.9
990 921 2 3.4 7.6499999999999995 12.75
991 922 1 4.25 6.8 12.75
992 923 1 4.25 7.6499999999999995 11.9
993 924 1 3.4 6.8 13.6
994 924 2 3.4 7.6499999999999995 14.45
995 925 1 4.25 6.8 14.45
996 926 1 4.25 7.6499999999999995 13.6
997 927 1 3.4 6.8 15.299999999999999
998 928 1 3.4 7.6499999999999995 16.15
999 929 1 4.25 6.8 16.15
1000 930 1 4.25 7.6499999999999995 15.299999999999999
1001 931 1 3.4 8.5 0.0
1002 931 2 3.4 9.35 0.85
1003 932 1 4.25 8.5 0.85
1004 933 1 4.25 9.35 0.0
1005 934 1 3.4 8.5 1.7
1006 935 1 3.4 9.35 2.55
1007 936 1 4.25 8.5 2.55
1008 937 1 4.25 9.35 1.7
1009 938 1 3.4 8.5 3.4
1010 938 2 3.4 9.35 4.25
1011 939 1 4.25 8.5 4.25
1012 940 1 4.25 9.35 3.4
1013 941 1 3.4 8.5 5.1
1014 942 1 3.4 9.35 5.949999999999999
1015 943 1 4.25 8.5 5.949999999999999
1016 944 1 4.25 9.35 5.1
1017 945 1 3.4 8.5 6.8