Position Data

4000 atoms
280 bonds

2 atom types
1 bond types

0.00 17.85 xlo xhi
0.00 17.85 ylo yhi
0.00 17.85 zlo zhi

Atoms

40 37 1 1.5024469950000001 0.328902315 0.7883880900000001
3642 3381 1 0.18466896000000002 1.2728245950000001 0.58980684
521 483 1 1.0738185150000001 1.16048562 1.4244264300000002
3239 3004 1 0.50187417 0.23816184000000004 0.9882831000000001
3651 3390 1 2.16972105 0.94995558 1.461317025
760 709 1 1.9321018500000002 1.5313764900000002 0.53542146
368 341 1 2.6059393500000003 0.42978159 0.627675615
883 822 1 3.8736285000000006 0.8945884500000001 0.39834417000000005
1162 1077 1 4.48740075 1.6052469300000003 1.2474918750000001
3920 3645 1 3.66669345 0.687965775 1.480295145
515 478 1 4.5928764 0.3754747500000001 0.9738692250000002
3608 3350 1 4.9627998 1.1339034000000001 0.170147985
2790 2586 1 5.493408900000001 0.020864508 0.391491555
1627 1505 1 5.54658405 0.88321443 1.2339401550000002
402 374 1 6.222902700000001 1.0445730750000002 0.36364734
1560 1441 1 7.297526250000001 1.0005531900000002 0.26941362
1678 1554 1 8.5050609 0.5711964300000001 1.1829837600000002
1236 1148 1 7.575200850000001 1.5405335400000002 1.1848990650000002
844 786 1 8.3785044 1.3674938550000002 0.359936325
1972 1825 1 7.484201550000001 0.25385913 0.9451093050000001
1566 1447 1 8.422647450000001 0.237346095 0.09238535250000002
2435 2256 1 9.955248450000001 0.301106295 1.7629713150000001
2033 1883 1 9.418124100000002 0.8409634800000001 0.433489035
2470 2289 1 10.241598150000002 1.49444841 0.033212424000000004
1292 1199 1 10.0735761 1.7013798900000001 1.42905315
2433 2254 1 11.046865200000001 0.63436044 0.10982837250000001
3296 3057 1 12.350111550000001 1.0962684600000001 1.3141080750000003
3124 2896 1 11.307136050000002 1.69206933 0.9285320100000001
2479 2297 1 11.527297950000001 0.121634898 1.059933
2839 2630 1 13.321365750000002 0.499658985 1.082208015
3724 3461 1 13.574157450000001 1.3940850000000002 0.198508065
3630 3370 1 12.6190575 0.76886376 0.17444715750000003
3561 3305 1 13.8986526 0.15654093 0.12323247300000001
3335 3095 1 13.239416400000001 1.5435287700000002 1.640270415
3607 3349 1 14.305721850000001 1.29898734 0.954469845
2879 2667 1 14.811483750000003 0.7859355 0.06753618900000001
3156 2925 1 15.519147 1.6278914400000002 1.2361374900000002
2917 2703 1 15.048174750000001 0.49975359 1.0742326350000002
3282 3044 2 17.40541005 0.7106656200000001 1.542095415
3910 3635 1 16.872998100000004 1.3793444700000002 0.0596902215
3566 3310 1 16.200981300000002 0.8336128500000001 0.6266224650000001
406 378 1 0.437598105 2.6836939500000003 0.596916495
3321 3081 1 0.0180815145 3.08606865 1.5450192450000002
370 343 1 1.6960088250000003 2.4634071 1.06075767
3680 3419 1 0.793609215 2.2917615000000002 1.77541812
456 426 1 3.2153919 1.8575424000000003 1.5351053550000002
72 68 1 2.8399171500000002 2.9991391500000004 1.3052330550000002
129 119 1 1.8151486500000003 3.1168599 0.072644502
371 344 1 3.5271064500000002 2.20574235 0.5211182550000001
76 71 1 1.79055135 3.4189176000000003 1.6761596250000002
488 454 1 4.7890479 2.7817618500000005 1.299956595
525 487 1 4.7923323 3.43143045 0.343196595
88 81 1 3.6758683500000005 3.5168248500000003 0.820594845
84 78 1 5.7036462000000006 1.98643725 0.7976254650000001
1311 1215 1 6.00839925 3.0942796500000003 0.7434489300000001
875 816 1 5.71615905 2.7836896500000003 1.7685512250000002
842 784 1 6.622135800000001 3.4729852500000002 1.7587230150000002
2 1 1 6.732698700000001 2.2473150000000004 0.533645385
487 453 1 7.11217185 3.2643366000000005 0.81066846
1640 1518 1 8.9093634 1.9020067500000002 1.2287904300000003
1314 1218 1 7.755057450000001 2.6577579 1.6371323850000001
1315 1219 1 8.02027275 2.31087885 0.34881756
1721 1594 1 8.8883361 3.3451614 1.48357062
2514 2330 1 8.1478467 3.53149755 0.71620983
1711 1584 1 9.185467200000001 2.8711725 0.5599027350000001
2075 1919 1 10.318085400000001 2.4349542000000004 0.55188273
1249 1159 1 10.006995600000002 3.3890188500000002 1.0747663500000002
1283 1192 1 10.8683652 2.6544021000000004 1.4853234900000003
2368 2195 1 11.57709945 2.6339817 0.24487344000000003
2388 2213 1 10.870025250000001 3.4922454000000003 0.43521870000000007
1277 1186 1 11.97993825 2.6030119500000004 1.3731273150000003
2750 2549 1 12.798467850000002 2.1742371 0.8954131200000001
1839 1704 1 12.780778500000002 3.25799985 0.32185692000000005
2914 2700 1 13.845031200000001 3.4843378500000006 1.1287393950000002
1644 1522 1 12.9921939 3.0294841500000005 1.52122341
3234 2999 1 13.84319265 2.4118563 1.016980545
2886 2673 1 14.812197750000001 2.2125075 0.5259877350000001
3245 3010 1 15.834842100000001 2.93113065 1.1657602950000001
2890 2677 1 14.742404250000002 3.38712675 0.5664322650000001
2484 2302 1 14.8146432 2.7462582 1.47468846
3316 3076 1 17.389023750000003 2.2209684000000003 1.070184255
3283 3045 1 16.9288686 3.1359415500000005 0.686862645
927 864 1 0.688265655 4.5665476499999995 0.10723351800000001
3692 3430 1 0.48183754500000003 4.104072 1.4827816500000002
1088 1009 1 1.050295785 3.6145893000000004 0.6549879
493 458 1 1.2186284250000001 4.761951600000001 1.04074068
3319 3079 1 0.066331314 4.94632425 1.07511621
2443 2264 1 1.9000432500000002 4.24985295 0.12000555
162 150 1 3.13333545 4.48665105 0.8324722350000001
125 115 1 2.2510992 4.37316075 1.4657473950000002
558 519 1 2.29099395 5.08691085 0.530953605
410 382 1 5.1406750500000005 3.8724861 1.56147873
953 888 1 5.06870385 4.531740150000001 0.103077681
123 113 1 4.306491 4.6308255 0.928540935
794 741 1 6.228846750000001 4.0519678500000005 0.9504607350000001
448 419 1 5.4871792500000005 4.7843355 1.11114465
924 861 1 7.0981774500000006 4.246104450000001 0.21818233500000003
2175 2011 1 6.1680318000000005 5.1783921 0.21073888500000001
2127 1965 1 8.60511015 4.577221950000001 1.5850264500000002
884 823 1 7.2927603 4.4119488 1.3367383050000001
2161 1998 1 8.8883004 5.309839500000001 0.661736985
916 853 1 7.8458604 5.0755225500000005 0.254282175
1323 1226 1 8.859544050000002 4.10994465 0.026928688500000002
2086 1930 1 9.604406700000002 4.39597305 0.9694406400000001
2969 2749 1 9.582290550000002 5.3282607 1.50338412
1714 1587 1 9.90355485 3.8200785000000006 0.0064478484
2046 1896 1 11.934795600000001 3.81641925 0.7568043
1682 1558 1 10.7652636 4.378694250000001 1.2304237050000002
2516 2332 1 10.8790395 4.64512335 0.16557802800000002
2473 2292 1 11.913322050000001 4.7886195 1.3578280800000002
2562 2376 1 12.063119250000002 4.76282625 0.24509835000000002
1269 1179 1 13.137332250000002 4.3863162 0.994821555
3682 3420 2 14.1304884 5.2909899000000005 1.6203498150000002
2892 2679 1 14.658830550000001 4.49393385 1.05840504
2561 2375 1 15.789056850000001 3.9294990000000003 0.831212025
2519 2335 1 14.9883594 4.964459850000001 0.1419226725
3686 3424 1 15.715122150000003 4.87378185 1.472387595
70 66 1 17.775047850000004 3.6391687500000005 0.10541603100000001
3674 3413 1 16.204176450000002 4.770234 0.318767085
922 859 1 16.941809850000002 4.1278839000000005 1.08147795
408 380 1 17.238155550000002 4.644587850000001 0.03583387500000001
133 123 1 0.9607566150000001 5.55850785 0.14831975550000004
3722 3459 1 0.695502045 6.23966385 1.268447775
904 841 1 1.6695533400000002 6.1118935500000005 0.6829124400000001
1326 1229 1 2.7175911 6.4752481500000005 0.6721292550000001
1299 1205 1 2.2743220500000003 5.67328335 1.388546145
85 79 1 3.7397178 6.522354300000001 1.5844427550000002
49 46 1 4.099074000000001 6.555466050000001 0.24048769500000003
1037 963 1 3.5788714500000003 5.53858725 0.95642085
1282 1191 1 4.6662756 5.45433525 1.5862027650000001
2132 1970 1 5.305537650000001 6.979546350000001 0.88600617
913 850 1 5.5333929 5.90240595 0.89234292
1740 1611 1 7.045698450000001 5.8543716 0.40980387000000007
444 415 1 6.49202715 5.6487753000000005 1.2318392100000002
1728 1600 1 6.244322700000001 6.6947674500000005 0.44953618500000003
1799 1666 1 8.67961605 6.018520200000001 1.5274459200000001
2445 2266 1 7.688637600000001 5.46061845 1.57148901
1477 1365 1 7.452642750000001 6.666350250000001 1.4056607250000002
2200 2034 1 8.6196222 7.138215 0.905507295
567 527 1 8.227779000000002 6.1656399 0.42026040000000003
1807 1674 1 9.36369945 6.22267065 0.41946429
2446 2267 1 9.850344000000002 6.471339 1.6928904300000003
2970 2749 2 10.60320345 5.4496585500000005 1.5997687650000003
2208 2042 1 10.27993995 6.787765950000001 0.43920639
2147 1984 1 10.41974115 5.5790175 0.49111597500000004
2157 1994 1 11.588648400000002 5.668481700000001 0.826121205
2281 2112 1 11.945434200000001 6.7796799000000005 0.40301551500000005
2842 2632 2 12.4469835 6.6111045 1.4500269000000001
2834 2625 2 12.8960538 5.643438150000001 0.960285375
2961 2742 1 13.866558300000001 5.372850000000001 0.41214579
2881 2669 1 13.8403902 6.38224965 1.2518401350000001
2841 2632 1 12.9544233 7.116277350000001 0.6806205
3792 3525 1 15.05431515 6.527709300000001 0.21587433000000003
139 128 1 15.8349135 5.8371106500000005 0.635019105
3803 3535 1 14.84775495 5.699986950000001 0.94653552
2564 2378 1 14.96817105 6.687520350000001 1.43884923
176 162 1 17.47830945 6.639860850000001 1.3318706100000002
3816 3547 1 16.23687765 6.5847579000000005 1.3350336300000003
3734 3470 1 17.7479694 6.058647000000001 0.386611365
3327 3087 1 16.9875237 5.401088700000001 0.8069574450000001
2532 2347 1 16.820947500000003 6.583347750000001 0.40474518
1006 935 1 1.2450946200000002 7.1862672000000005 0.7055016150000001
497 462 1 0.5819224950000002 8.468432700000001 0.790035645
962 896 1 1.6671043200000002 8.0855145 1.2409873350000002
94 87 1 0.5656575750000001 7.42940205 1.578273795
1328 1231 1 2.53043385 7.15843905 1.637717865
528 490 1 1.8087226500000002 8.618694000000001 0.24195853500000003
1410 1307 2 3.0131871000000006 8.268334200000002 1.6674274050000002
1290 1197 2 2.61993375 7.823958450000001 0.687173235
86 79 2 3.5054544000000005 7.385705250000001 1.025255805
1289 1197 1 2.1556909500000003 7.239406650000001 0.017908726500000003
642 597 2 3.7615483500000004 8.4992418 0.5781918450000001
1370 1270 2 4.515264600000001 7.644173250000001 1.5927001650000001
1766 1634 2 4.7179870500000005 8.7943023 1.06766205
50 46 2 4.4904888000000005 7.529451300000001 0.21215796
1414 1310 2 5.4736668 8.173961250000001 0.32745825
1413 1310 1 6.198412500000001 7.791739200000001 0.95778459
974 907 2 5.907171900000001 8.84208675 1.26818538
1485 1373 1 6.7359474 8.21515905 0.071423919
2126 1964 1 7.4712246 7.53839415 0.7568400000000001
483 449 1 7.411962600000001 8.3832882 1.6921692900000003
1885 1743 1 8.601986400000001 8.290307550000001 0.8580138
1685 1561 1 7.7578777500000005 8.6152311 0.20479305000000003
910 847 1 9.693442500000002 8.14565115 1.4851324950000002
1674 1550 1 9.608672850000001 7.892252550000001 0.443474325
1732 1604 1 10.4033013 8.62381695 0.53833101
1440 1334 1 11.29467675 7.885344600000001 0.23769952500000002
1360 1263 1 12.06676065 7.7250516000000005 1.03673871
2279 2110 1 10.7718681 8.3024634 1.5171643200000002
1683 1559 1 13.88067765 8.3435184 0.37619410500000006
2925 2711 1 13.416613350000002 7.8643173000000015 1.4446790400000002
1645 1523 1 12.562580100000002 8.010865800000001 0.11626776
2968 2748 1 14.404360950000001 7.31659005 0.5928645450000001
1762 1631 1 15.209824350000002 8.2267437 0.7390114200000001
210 194 1 15.905064000000003 7.32794265 0.42746109000000004
3563 3307 1 15.763692 7.758877350000001 1.5681582
357 332 1 14.436490950000001 8.786519700000001 1.327242105
2261 2093 1 14.526901200000001 7.634266500000001 1.7361249150000002
3814 3545 1 17.540498850000002 8.863953 0.29601904500000004
765 713 1 16.44582975 8.4047082 0.689707935
3730 3466 1 17.819190900000002 7.4285988000000005 0.49048587000000005
3808 3540 1 17.5898898 8.14679355 1.3533798600000002
3050 2824 1 16.859806950000003 7.41130215 1.095781155
3690 3428 1 1.72654482 9.1934997 1.1899559700000002
3445 3198 1 0.45737412 9.570902250000001 1.0863563550000002
3849 3578 1 1.3234811100000001 10.320727200000002 0.8922822300000001
3360 3120 1 0.9927045450000002 9.361057650000001 0.018162732
213 197 1 0.23078443500000004 10.6122177 1.22498838
205 189 1 2.1175990500000004 9.75261525 0.20788824
570 530 1 2.4405590999999998 10.267998300000002 1.3709085600000002
641 597 1 3.1040793 9.150873900000002 1.0178694750000001
300 280 1 3.03016245 10.417010100000002 0.42238276500000005
1522 1406 1 4.10044845 10.62583725 0.6040315050000001
1765 1634 1 4.22150715 9.5854143 1.52915595
241 224 1 5.1085986000000005 10.155489750000001 0.4168528350000001
890 829 1 4.78774485 10.6852599 1.4402451
973 907 1 5.811852900000001 9.835974750000002 1.2826813650000002
1804 1671 1 6.947344950000001 8.99998785 1.02632145
934 871 1 6.383695500000001 10.686027450000001 0.6111036750000001
2210 2044 1 6.726433350000001 10.491712350000002 1.6192895250000001
242 224 2 5.4360747 9.22225605 0.328527465
1366 1267 2 6.43023045 9.550910250000001 0.15765262800000002
2288 2119 1 7.915511100000001 10.298932350000001 1.7494999200000003
2204 2038 1 8.900081400000001 10.297361550000002 0.9544430700000002
1692 1567 1 8.08385445 9.14807145 1.106166285
1365 1267 1 7.374959550000001 9.90334065 0.32916471
918 855 1 8.493208500000001 10.23660015 0.0360682455
3048 2822 1 9.220667400000002 9.108694350000002 0.461713455
1761 1630 1 10.06809615 9.736853700000001 0.6804152250000001
1855 1718 1 10.1678598 10.2418659 1.76740347
2646 2453 1 9.1748643 9.368376150000001 1.54370727
2720 2522 1 10.646614650000002 10.663982700000002 0.321258945
3164 2933 1 11.519265450000002 9.2360184 1.635490185
1780 1648 1 11.4007593 9.636108300000002 0.29724712500000006
2576 2389 1 11.499005700000001 10.409084700000001 1.23898278
2647 2454 1 12.635693700000001 9.073744050000002 0.941239425
3805 3537 1 12.497784600000001 10.232780250000001 0.6434300250000001
3519 3267 1 13.220941650000002 9.90318 1.41602979
2684 2489 1 14.34069 9.86589135 0.89734449
1368 1269 1 15.40667415 9.48472245 0.7854535500000001
3773 3506 1 16.035690300000002 8.942725050000002 1.71800181
3011 2788 1 15.930750150000001 10.11347085 1.609625535
3764 3497 1 14.643069 9.1015008 0.22084734000000003
3812 3543 1 15.930821550000001 10.6331379 0.6490420650000001
3881 3609 1 17.512581450000003 10.124734200000002 0.151586841
3839 3568 1 16.83099705 9.543181200000001 1.029593355
3483 3234 1 16.855058850000002 10.5285369 1.25327349
568 528 1 1.44960921 11.730734400000001 1.5377775000000002
1043 969 1 1.0035555600000001 11.409327300000001 0.49349181000000003
322 300 1 0.31843686000000004 12.288404100000001 1.0209253950000001
522 484 1 2.1841617 11.129332200000002 0.7278230400000001
204 188 1 2.8369005 11.892919500000001 0.048324412500000004
1045 971 1 2.7224463 12.139428 1.0469685450000001
2282 2113 1 3.4638639 11.369503950000002 1.1796511650000001
1532 1416 1 5.29140045 12.466225800000002 0.572383455
603 560 1 3.82470165 12.491929800000001 0.95900196
691 645 1 4.70056545 11.9486472 1.4613759300000002
3330 3090 1 4.5276168 11.55500115 0.47169696000000005
1151 1067 1 7.0833619500000005 11.703602400000001 0.1428319515
1235 1147 1 5.5827481500000005 11.345834850000001 1.052701965
2572 2385 1 7.123595850000001 11.510929500000001 1.312976385
1445 1338 1 6.11446395 12.1992255 1.349244015
2285 2116 1 7.817175450000001 10.881717000000002 0.5761355250000001
1648 1526 1 7.91542185 12.132823500000002 0.639356655
2202 2036 1 8.804441100000002 11.491722900000001 0.23788695
1810 1677 1 8.2819002 11.279290050000002 1.4506998450000002
1488 1375 1 9.016302750000001 12.176127600000001 1.0200918
2328 2156 1 9.80098875 10.967718300000001 0.9370196850000001
2723 2524 1 10.203577650000001 12.008391150000001 1.5594527550000001
1998 1850 1 10.299217950000001 11.884797750000002 0.27253915500000003
2611 2419 1 10.952563650000002 11.4000096 1.19864892
2644 2451 1 12.27385635 11.298693 0.76541514
2353 2180 1 11.570744850000002 12.1696659 0.7669538100000001
3448 3201 1 12.423296550000002 12.440736000000001 0.17358803700000003
2830 2622 1 12.592478850000001 12.21927105 1.486549785
3598 3341 1 13.766687550000002 10.71958545 0.8377254900000001
3082 2856 1 13.171390050000001 11.74160505 0.553155435
1812 1679 1 12.98078775 10.9926369 1.5522699150000001
2565 2379 1 14.941164 10.855691700000001 1.137393075
2602 2411 1 14.98462875 11.065857600000001 0.022974021
363 337 1 14.3039547 11.982080250000001 0.5467758450000001
200 185 1 15.475450200000001 11.7200244 0.79641345
206 190 1 16.4892588 11.635433250000002 0.196762335
1953 1808 1 17.21402235 11.632184550000002 1.2080665800000001
797 744 1 17.14572825 12.489466500000002 0.362310375
3842 3571 1 16.1956263 12.432471450000001 1.2188390550000001
3959 3681 1 1.4625968700000003 12.520953900000002 0.54886608
606 563 1 0.19055410500000003 13.348033650000001 0.39465279000000003
3484 3235 1 1.1677898400000002 13.516573350000002 0.951292545
3485 3236 1 2.33408385 13.118875350000001 0.922311285
1215 1127 1 3.0148828500000002 14.1072477 0.7099783950000002
689 643 1 3.4208811000000003 13.263388950000001 0.20054118
1089 1010 1 4.67047035 13.366294200000002 0.22974199500000003
1087 1008 1 5.02575675 13.1116104 1.5195133800000002
692 646 1 4.0803315 13.80802815 1.1520211500000002
3923 3648 1 4.1856822000000005 14.241747450000002 0.10266249000000001
2390 2215 1 6.53090445 12.7777797 0.5157061350000001
1408 1306 1 5.765103750000001 13.57080165 0.836749095
1163 1078 1 6.66502935 13.92405315 1.2641780550000001
1240 1151 1 7.197155700000001 12.65106255 1.34939574
1164 1079 1 8.51650275 13.2153189 1.1866465800000001
1558 1439 1 8.274974400000001 14.2733955 1.1898417300000002
2358 2185 1 8.69368185 12.71625075 0.0942638865
1884 1742 1 7.683478950000001 13.19209605 0.4473674100000001
1551 1432 1 8.4846405 13.978549200000002 0.085070958
1405 1303 1 9.456430200000002 13.119928500000002 1.6372466250000002
1995 1847 1 9.64308765 13.00142235 0.5312267100000001
2324 2153 1 9.262829100000001 14.067388650000002 0.8334593400000001
2840 2631 1 10.48478655 13.857526200000002 0.807475095
3128 2900 1 12.482094450000002 13.2230301 1.167013365
1924 1780 1 11.295480000000001 13.227064200000001 1.4820230250000002
3477 3229 1 11.619707400000001 13.471930500000001 0.43303386000000005
684 638 1 13.917502200000001 12.950996100000001 1.284266445
3363 3123 1 13.654357500000001 13.989723300000001 1.645971705
238 221 1 13.123284300000002 13.674153150000002 0.11076603300000001
636 592 1 15.018579450000002 12.88579005 0.8804101950000001
3885 3613 1 15.39778485 13.93772625 1.205469405
288 269 1 14.3101308 13.784002050000002 0.63538503
325 303 1 15.38446875 13.6154088 0.12393612000000001
758 707 1 16.37200215 13.331629500000002 0.634447905
329 306 1 17.506583850000002 13.188615300000002 1.31501664
330 306 2 17.3400612 14.1921423 1.409869755
359 334 1 0.23250339 14.4795987 0.6266421
771 719 1 0.8597256150000001 15.680100450000001 1.1997823950000002
323 301 1 1.5003014250000002 15.3908769 0.1936011
3230 2995 1 0.326221245 15.5188614 0.25702572
732 683 1 1.7921935500000004 14.5346124 1.09615065
1116 1034 1 2.4697438500000004 15.114648150000003 0.49186389
1886 1744 1 3.1944360000000005 15.724743300000002 1.1483976000000002
767 715 1 2.7238207500000002 14.870513700000002 1.5410262000000001
763 711 1 3.5402797500000003 15.181014450000001 0.27407247
296 276 1 4.954981500000001 14.499287250000002 1.01556147
1843 1707 1 4.040883 14.932578150000003 1.4762610450000002
1565 1446 1 4.339263600000001 15.95249145 0.810705945
1930 1786 1 4.86789135 15.1112388 0.05816011950000001
1597 1476 1 5.151884850000001 15.788057250000001 1.78462515
1920 1777 1 5.5835871 15.97648185 0.595745535
1993 1845 1 5.93639235 14.850289650000002 0.76370154
1665 1541 1 6.858737550000001 15.412903800000002 0.718724895
1966 1819 2 6.1665145500000005 15.34216425 1.60434015
2716 2518 1 7.345275 14.291263350000001 0.525280875
1076 998 1 7.14680085 15.978927300000002 1.6705922100000001
2360 2187 1 7.975647750000001 15.1814607 0.49589085000000005
1883 1741 1 8.2786158 15.421882350000002 1.5919361850000002
1605 1484 1 8.8770192 16.00343535 0.522928245
1562 1443 1 9.095164050000001 15.00101505 0.043600767000000006
2403 2227 1 10.032771 15.875861400000002 1.6493542800000003
2441 2262 1 9.385369350000001 15.116897250000001 1.2387721500000002
3154 2923 1 10.13199915 15.094138500000001 0.346316775
2002 1854 1 10.638010950000002 14.945787150000001 1.2713805300000003
681 635 1 11.643376500000002 14.392151550000001 1.003435965
2113 1952 1 11.215869000000001 14.84457765 0.080593107
3604 3346 1 11.16208695 15.85099635 0.7723462950000001
3562 3306 1 12.35296755 15.664553100000001 1.099918785
3238 3003 1 12.293187900000001 14.465247300000001 0.049726887000000004
3236 3001 1 11.9445774 15.78213105 0.05020241100000001
3122 2894 1 12.8124444 14.698868100000002 1.234589895
3927 3652 1 13.671261450000001 15.534908550000003 1.2803215950000002
3203 2969 1 13.01691615 15.648880800000002 0.22125789000000004
3597 3340 1 13.639149300000001 14.701384950000001 0.59371242
326 303 2 15.952902 14.5061595 0.1497359745
209 193 1 14.568420300000001 14.613438 1.3716029250000001
762 710 2 15.790984650000002 15.68274225 0.513560565
362 336 2 15.3824874 15.24720225 1.5464061900000001
3602 3344 2 14.514727500000001 15.736524300000001 0.7803377400000001
3998 3717 2 16.9659252 15.05513625 0.37970163
334 309 2 17.167987200000002 15.349215000000001 1.45885551
3886 3613 2 16.233468300000002 14.3789247 1.4649495000000001
1133 1049 1 1.1725861350000002 16.542576750000002 0.57239595
4000 3719 1 0.833818125 16.982739900000002 1.5134229600000002
3994 3714 1 0.131296746 17.063975250000002 0.5828524800000001
801 748 1 3.5507398500000003 17.711109150000002 0.526805265
3963 3685 1 2.10653205 16.123315950000002 0.805636545
1595 1474 1 1.9528792500000003 17.086948200000002 1.2797503950000002
477 444 1 2.4819354000000002 17.10499455 0.317007075
1131 1047 1 3.1070781000000003 16.829783250000002 1.100989785
3641 3380 1 2.6590431 17.81820915 1.70330055
1239 1150 1 3.3446437500000004 16.2325044 0.21156534000000002
2038 1888 1 5.062295700000001 16.86516195 1.09164888
1594 1473 1 4.65686865 16.8616098 0.149834685
1272 1181 1 4.125331350000001 17.3346705 1.5476164200000002
1523 1407 1 6.81789675 16.7319117 0.889013895
1169 1083 1 6.116516700000001 17.60179575 1.188743955
1635 1513 1 6.004079550000001 16.9688526 0.1544701515
1492 1379 1 6.03599535 16.478923650000002 1.6195055100000002
1267 1177 1 6.86170065 17.766551250000003 0.17270678250000002
1200 1113 1 8.276688 17.336848200000002 0.8609233500000001
1273 1182 1 7.79200695 16.3433886 0.7142945250000001
1954 1809 1 7.79261385 16.835102550000002 1.745099895
2791 2587 1 10.1834607 17.67826515 0.47884410000000005
1637 1515 1 8.94022605 16.286768400000003 1.6673167350000002
1271 1180 1 9.30433035 17.45624685 1.1778179700000002
2794 2590 1 9.915746400000002 16.562586600000003 0.7485361800000001
1964 1818 1 10.142209350000002 16.9259412 1.763681745
3125 2897 1 9.2913534 17.210345250000003 0.09424443000000002
2803 2598 1 12.117115500000002 16.718667 0.789053895
1994 1846 1 11.1474678 16.854666150000003 1.4373819600000002
3200 2966 1 11.1126603 16.9960203 0.38862663000000003
2835 2626 1 12.862370850000001 17.457942600000003 0.41195658
3568 3312 1 13.062790650000002 16.43976075 1.0409584500000002
3166 2935 1 13.999076700000002 17.496177300000003 1.155482265
1604 1483 1 12.764892000000001 17.4126036 1.5957186
69 65 1 13.916020650000002 16.91353545 0.06463252950000001
3955 3677 1 14.338548000000001 16.44101025 1.6138363500000001
3492 3243 1 14.9241351 16.9348305 0.68570061
6 4 2 16.06226895 16.8834939 1.032752805
3609 3351 1 14.996606100000001 17.44860705 1.6723075950000001
5 4 1 15.854334300000001 17.6089893 0.305950785
333 309 1 17.767176000000003 16.17183225 1.606541055
78 72 2 16.86823215 17.549691600000003 1.3076303100000002
30 27 2 17.038253400000002 16.4669463 0.79121553
90 83 1 1.3290985050000002 0.074495547 1.8963304500000002
3652 3391 1 1.51087755 1.26940632 3.376506
3615 3356 1 0.8428948500000001 0.6700229550000001 2.7551118000000003
1176 1090 1 1.663225515 1.66768266 2.10567525
442 413 1 0.324718275 1.4701670550000001 2.17993125
3685 3423 1 0.161937699 1.1675667150000002 3.4536894
131 121 1 2.1153856500000003 0.650116635 2.71960815
1083 1004 1 3.1102554000000002 1.171943535 2.47645545
52 48 1 3.11777025 0.6301014300000001 3.5565946500000005
766 714 1 4.2224532 0.8220996 3.2608915500000006
367 340 1 4.5045546000000005 0.573604395 2.0663874000000004
805 752 1 5.26733865 1.4413464450000002 3.0879072000000005
848 790 1 5.2400103 1.750947555 1.9703187
409 381 1 3.5826378 0.1400680575 2.5806637500000003
1165 1080 1 6.862914450000001 0.7038308550000001 1.826769
1166 1080 2 6.08465445 0.490241325 2.4448788
1238 1149 2 6.9246933 1.004931795 3.2917185
806 752 2 6.20739105 1.7775690450000001 2.6385870000000002
529 491 1 8.18192235 1.4686462350000002 2.1448024500000002
2092 1935 1 8.01548895 1.7344416600000003 3.35706735
1237 1149 1 7.85123325 0.7267466850000001 2.92802475
1321 1224 1 8.843621850000002 0.5944781850000002 2.26171995
828 771 1 7.971096000000001 0.04120172700000001 1.92324825
1713 1586 1 9.359022750000001 1.661876055 2.30616645
1633 1511 1 9.6606699 0.794094735 3.0064933500000004
1931 1787 1 10.3108383 1.7845555350000002 2.9942125500000003
1203 1115 1 11.013503550000001 0.7977522000000001 2.9989071
3256 3020 1 11.70129975 0.5568521700000001 2.0520717
3654 3393 1 12.290778150000001 1.246649355 2.5710961500000002
2040 1890 1 11.23737825 1.66594407 2.2443876
2764 2563 1 14.080811850000002 0.6561320850000001 1.9333513500000001
2846 2636 1 12.993729000000002 0.506620485 2.30541675
1602 1481 1 13.37930685 1.5155524650000003 2.8605339000000005
2376 2203 1 13.539046500000001 0.612845835 3.53253285
2847 2637 1 14.63851725 1.711002825 1.9644639000000002
3318 3078 1 15.32324325 0.79276134 2.08943175
2971 2750 1 15.5399601 1.6681217700000002 2.8942882500000002
89 82 1 14.994535500000001 0.382648665 3.0575800500000003
3249 3014 1 14.32639215 1.2868600500000003 3.5642880000000003
2804 2599 1 16.35915015 0.5939516100000001 1.7887485
3281 3044 1 17.11670415 1.5274726950000002 2.09557215
2808 2603 1 16.2291843 0.52588599 3.06532695
3643 3382 1 17.396556450000002 0.6723220350000001 2.6127759000000004
92 85 1 0.90782244 2.05105425 2.9531575500000002
1255 1165 1 1.6687375950000003 2.8209426000000004 3.2320102500000005
968 902 1 0.6490045799999999 3.5575407000000006 2.3810115000000005
3656 3395 1 2.46749475 1.9802968500000002 3.0518859
942 878 1 2.6943504000000003 2.8680309000000004 2.3417415000000004
1672 1548 1 4.01451855 1.7991372000000003 2.3437050000000004
2022 1874 1 3.8690767500000005 3.0104739 1.9896681
896 834 1 3.63995415 2.8080013500000005 3.06986085
119 110 1 4.8940773 2.6584183500000003 2.5060686
3207 2973 1 4.479261150000001 2.1629202000000003 3.4520650500000003
79 73 1 6.66313725 2.34711435 1.8334449000000002
441 412 1 6.49606125 2.9250438000000005 3.0964216500000004
519 481 1 7.4950722 2.2539909000000002 2.68380105
2366 2193 1 8.657160750000001 2.4892896 2.27028795
2493 2310 1 7.806876000000001 3.4757163 2.35935945
874 815 1 8.2330626 2.99603325 3.28402515
1643 1521 1 9.2308419 2.24790405 3.5134869000000006
1651 1529 1 9.238678049999999 3.2836503000000006 2.7772815000000004
812 758 1 9.7384245 2.6900307000000003 2.0412189
2837 2628 1 10.765567050000001 2.7181266 2.65556235
3237 3002 1 11.865912450000001 1.94388285 3.3074979
2492 2309 1 12.116901300000002 3.25603635 2.9517831000000005
2081 1925 1 12.77272815 2.32194585 2.29206495
1312 1216 1 13.893190500000001 2.8380429 2.18043105
2485 2303 1 13.219906350000002 3.4262896500000006 2.7988978500000004
2003 1855 1 14.151051600000002 3.09670725 3.31447725
2857 2647 1 15.79280535 2.7826008 3.447906
3647 3386 1 14.695940700000001 2.2351056000000002 2.9948194500000005
2437 2258 1 15.44808615 2.8098756000000003 2.42554725
2495 2311 1 16.14080895 2.0958042000000003 2.1151179
100 92 1 16.82917635 1.9395096000000003 3.1703028
3687 3425 1 17.63089125 2.6970636000000003 2.6684322000000003
82 76 1 16.72935915 3.1219471500000004 1.8286075500000003
2891 2678 1 16.631701800000002 3.1286944500000002 2.9432686500000003
3771 3504 1 0.9901894800000002 4.3265187 3.3259191
3731 3467 1 0.193460085 4.7128641 2.5698466500000006
572 532 1 1.250922645 4.413591 2.2967952000000005
3637 3377 1 3.0689862000000003 3.7577106000000002 3.4265574
38 35 1 2.0704929 3.7028932500000002 2.6931723000000005
3252 3016 1 3.0210054000000004 3.90670455 2.1624918
485 451 1 3.5292306000000004 5.291953800000001 2.09089545
132 122 1 2.36846295 5.03136165 2.3763348
891 830 1 2.6062785 4.764165000000001 3.3583168500000005
880 820 1 4.13739795 4.1290263000000005 1.95002325
935 872 1 4.907304150000001 4.6716127499999995 2.4747240000000006
12 10 1 4.5146577 3.6143037000000002 2.90535525
1218 1130 1 3.9280174500000005 4.60131945 2.9874295500000003
1285 1194 1 6.83374755 3.9851017500000006 2.7996832500000006
846 788 1 6.196484700000001 4.453289400000001 1.98922185
1673 1549 1 5.69323965 3.7887339000000004 2.61800595
923 860 1 6.805366050000001 5.282279100000001 2.47706235
1745 1615 1 5.7108219 4.9006461 3.1479367500000004
2134 1971 2 7.0824694500000005 4.901752800000001 3.5411901000000006
2494 2310 2 7.921651500000001 4.4487198 2.6466016500000005
2117 1956 1 8.579084850000001 5.3343297000000005 2.5244541000000003
1286 1194 2 7.438541250000001 3.69050535 3.53870895
1690 1565 2 8.88303465 4.28940855 3.5531853000000004
2118 1956 2 8.3048196 5.197545150000001 3.4890145500000003
1679 1555 1 9.2939595 4.323805500000001 2.3607517500000004
1680 1556 1 10.32056655 3.7926252000000003 2.3553075000000003
2601 2410 1 10.057814550000002 5.0027838000000004 2.5538887500000005
2096 1938 1 10.00397895 4.3088115 3.37352505
2567 2381 1 11.32966275 3.7632798000000003 1.93599315
2042 1892 1 12.34971885 3.7891801500000004 1.9959870000000002
2873 2662 1 11.173975050000001 4.7988475500000005 2.60800995
2874 2662 2 12.18246435 4.637590650000001 2.4896109
808 754 1 11.061520050000002 3.7375401 3.1091844
2486 2303 2 12.72189135 4.115192550000001 3.37102605
1270 1179 2 13.285362300000001 4.539629850000001 2.0163003
3374 3133 2 13.610178750000001 4.9874328000000006 3.0082605000000004
2451 2272 1 14.430975300000002 3.9213951000000002 2.0419686