Position Data

4000 atoms
1 atom types

0.00 17.85 xlo xhi
0.00 17.85 ylo yhi
0.00 17.85 zlo zhi

Atoms

249 1 0.39320337000000005 1.7443823250000003 0.064077216
212 1 1.282499295 0.8531353950000001 0.09758719950000001
210 1 0.43986862500000007 1.012568025 0.8953078050000001
209 1 0.38200249500000005 0.0650680695 0.16890384
211 1 1.237599405 0.1290435405 0.984429285
216 1 1.259662005 1.0997974050000001 1.67080998
612 1 2.9093715 0.8601468750000001 0.11497327800000001
610 1 2.0524287 0.9847577250000001 0.866558595
609 1 2.03845215 0.04527241950000001 0.1289710695
611 1 2.9189569500000005 0.061664431500000005 0.8643202050000001
616 1 2.88354255 1.0458511350000002 1.7249740200000003
613 1 2.08786095 0.273395955 1.7362587900000002
1049 1 3.79892625 1.69964844 0.0898242345
1012 1 4.599195300000001 0.8438337600000001 0.215290635
1051 1 4.6282908 1.7514544950000002 0.9163190400000001
1010 1 3.7354873500000005 0.95941251 0.9762575550000001
1011 1 4.552410450000001 0.070172277 1.071337365
1016 1 4.696281450000001 0.94151967 1.778350875
1013 1 3.7071594000000005 0.185534685 1.7417191050000003
1449 1 5.3885758500000005 1.68922761 0.09848701800000001
1412 1 6.2611909500000005 0.89570229 0.255913665
1410 1 5.46654465 0.9887579100000001 0.957615015
1413 1 5.6324604 0.00892080525 1.6011378600000001
1416 1 6.5021481 0.72668421 1.4540074500000002
1849 1 7.2215745 1.7822653800000001 0.10072415850000001
1851 1 8.2414164 1.6197250650000001 0.5356856400000001
1853 1 7.487860800000001 1.654346925 1.32937518
1810 1 7.436791950000001 0.70870926 0.6185042850000001
1816 1 8.290307550000001 0.8951346600000001 1.4254528050000002
1813 1 7.4869326 0.099208872 1.532699175
2251 1 10.058671350000001 1.7594227350000002 0.680068935
2253 1 9.122938650000002 1.770446895 1.43618244
2211 1 10.016188350000002 0.060555054000000004 0.7941714900000001
2210 1 9.170419650000001 0.960663795 0.6563123700000001
2216 1 9.94361025 0.940818165 1.4687337
2213 1 9.12065385 0.10984390200000001 1.5164199750000003
2651 1 11.76523845 1.74640116 0.590283435
2609 1 10.857441000000001 0.018854776500000003 0.0397321365
2610 1 10.83914475 0.9541521150000001 0.7113421350000001
2616 1 11.953448850000001 0.7105674450000001 1.0972377150000001
3051 1 13.803815550000001 1.5475646550000002 0.17088340500000002
3053 1 12.886486200000002 1.5405585300000002 1.0760319150000002
3010 1 12.874830150000001 0.655814355 0.41073742500000004
3016 1 13.772203200000002 0.7897411200000001 1.03327224
3451 1 15.46575765 1.51930275 0.22384971000000004
3453 1 14.546911050000002 1.56742635 1.03820241
3410 1 14.713433700000001 0.738274215 0.33052488
3416 1 15.426987450000002 0.7128808050000001 1.13030127
3812 1 17.416584150000002 0.9411858750000001 0.018983832000000003
3853 1 16.3176132 1.5246291900000002 1.029518385
3810 1 16.30338675 0.6254675700000001 0.37844499
3816 1 17.15440335 0.8053937850000001 1.076595975
251 1 1.270589775 1.8553290000000002 0.7950211500000001
250 1 0.455808675 2.68979865 0.771689415
291 1 1.2731976600000001 3.5004742500000003 0.545922615
253 1 0.35627529 1.9097893500000003 1.589140875
256 1 1.1887046850000003 2.77198005 1.5968056650000002
651 1 2.8920570000000003 1.81229265 0.8602557600000001
650 1 2.0629066500000004 2.7312999000000002 0.791228025
691 1 2.9053374 3.3715437 0.7805019600000002
653 1 2.05469565 1.8777486 1.7068812600000003
656 1 2.97439905 2.6606317500000003 1.554276255
693 1 2.03563185 3.5491690500000006 1.5468756450000003
1052 1 4.62852285 2.5076037 0.0689079615
1050 1 3.84719265 2.5588332000000005 0.861346395
1091 1 4.665061800000001 3.49347705 0.7440915300000001
1053 1 3.81202815 1.8514020000000002 1.72955076
1056 1 4.7030466 2.70807705 1.637571495
1093 1 3.8534937 3.5425824 1.5099047250000002
1451 1 6.3020139 1.8092760000000003 0.961081485
1452 1 6.343425900000001 2.522919 0.061165881000000005
1450 1 5.527448850000001 2.6339817 0.815236275
1453 1 5.477129700000001 1.79572785 1.7524951500000001
1456 1 6.311599350000001 2.7354411 1.6437118950000003
1493 1 5.5480299 3.5496153000000006 1.5591493050000003
1856 1 8.215837350000001 2.55549525 1.3482997500000002
1850 1 7.1460868500000005 2.66402325 0.8434589100000001
1889 1 7.205848650000001 3.4582947 0.014073689700000001
1852 1 8.094510900000001 2.5950687000000006 0.096065844
2289 1 8.9093277 3.5153968500000006 0.056070598500000006
1891 1 8.0547054 3.527517 0.779650515
1893 1 7.186106550000001 3.5355316500000002 1.5585227700000002
2250 1 9.17784525 2.4095358 0.557892825
2256 1 10.09015875 2.5940512500000006 1.441485675
2291 1 10.0310217 3.3236164500000003 0.523228125
2293 1 9.11836905 3.4050124500000005 1.210813695
2650 1 10.8809316 2.5984423500000005 0.53945199
2656 1 11.718078750000002 2.6101341000000002 1.42483341
2653 1 10.929055200000002 1.8531870000000001 1.3546132950000003
2691 1 11.727664200000001 3.36549255 0.53032707
2693 1 10.862581800000001 3.4432293 1.32864333
3056 1 13.7958009 2.4988393500000003 0.9830601900000001
3050 1 12.63485475 2.5687578 0.6232755900000001
3093 1 12.570344850000001 3.5434927500000004 1.3470645300000001
3054 1 12.8565339 2.5369848000000004 1.6832103750000003
3095 1 13.74819495 3.4069402500000003 1.666088655
3450 1 14.682660300000002 2.33965305 0.24334548000000003
3456 1 15.499440600000002 2.3875802999999998 1.0198222650000002
3493 1 14.660062200000002 3.2826150000000003 0.9034741800000001
3454 1 14.6503875 2.49519795 1.746588585
3495 1 15.497352150000003 3.3005542500000007 1.64340309
3851 1 17.386257 1.8641112000000002 0.8393087850000001
3850 1 16.55614275 2.63428515 0.66748647
3891 1 17.4755784 3.5516859000000003 0.64639134
3854 1 16.295050800000002 2.5451601 1.7387470800000002
3856 1 17.358982200000003 2.8113393 1.471327305
331 1 1.315161225 5.1608634 0.5038698
290 1 0.39206454 4.3757847000000005 0.64278207
333 1 0.46055142000000004 5.3453967 1.35820293
293 1 0.43467427500000005 3.6423460500000004 1.4649566400000003
296 1 1.21923711 4.4608578 1.3728327900000001
690 1 2.1393225 4.20869085 0.596309595
731 1 3.0299661 5.0936581499999996 0.57953238
696 1 2.8804188000000006 4.2991725 1.4439739650000003
733 1 2.1640626000000003 5.15845365 1.2821387250000003
1090 1 3.79960455 4.232877600000001 0.588523425
1131 1 4.6258989 5.0863039500000005 0.5859280350000001
1096 1 4.625916750000001 4.398579150000001 1.4586395250000002
1133 1 3.7586031 5.21882235 1.37047659
1491 1 6.354171600000001 3.5753550000000005 0.754232115
1490 1 5.448462600000001 4.36377165 0.684399345
1531 1 6.3735567 5.162916150000001 0.6652284450000001
1496 1 6.483941100000001 4.3831032 1.512917805
1533 1 5.5579188 5.258502900000001 1.42149546
1890 1 7.2967944000000005 4.2954597 0.785594565
2290 1 8.86032945 4.38886875 0.769692
1931 1 8.15364795 5.202257550000001 0.6089616750000001
2333 1 8.889657000000001 5.3234233500000006 1.4015088150000001
1896 1 8.091387150000001 4.4142336 1.5337255500000002
1933 1 7.300435800000001 5.218733100000001 1.4406056700000003
2296 1 9.9517677 4.316558400000001 1.2573700650000001
2331 1 9.80255955 5.149403700000001 0.56826903
2690 1 10.76588835 4.237322250000001 0.458282685
2696 1 11.701656750000001 4.39408095 1.2416584950000003
2733 1 10.885144200000001 5.17491135 1.170033585
2731 1 11.590576200000001 5.052924450000001 0.34839451500000007
3090 1 12.449054100000001 4.31568375 0.39572557500000005
3133 1 12.490787400000002 5.259877350000001 1.1816146650000001
3091 1 13.523160000000003 3.61392885 0.572005035
3092 1 13.478267250000002 4.66922085 0.147011886
3096 1 13.51289625 4.4500764 1.2872027700000002
3490 1 14.471762550000001 4.3073478000000005 0.4895773050000001
3491 1 15.736452900000002 3.5789428500000007 0.582022455
3492 1 15.493782150000001 4.745333250000001 0.251583255
3496 1 15.677940600000001 4.4745666 1.31827248
3533 1 14.57479275 5.20186485 1.2173932050000003
3494 1 14.521671150000001 4.25442255 1.735696515
3893 1 16.495702650000002 3.6460767 1.444320255
3890 1 16.6205991 4.342191000000001 0.557364465
3931 1 17.45685375 5.1886023 0.55360347
3896 1 17.38099125 4.45437825 1.4160851250000002
3933 1 16.52494095 5.297023200000001 1.26918498
330 1 0.408884595 6.0094881 0.39086323500000003
336 1 1.3453902 6.07480125 1.2404089950000001
371 1 1.3095688200000002 6.9018631500000005 0.46068708
369 1 0.215954655 7.132110300000001 0.125776455
373 1 0.524748945 6.9455956500000005 1.221627225
730 1 2.25086715 5.973216900000001 0.49991781
736 1 3.03519615 6.05695125 1.3641380550000002
771 1 3.05311755 6.821591700000001 0.486635625
773 1 2.1622597500000005 6.9094137 1.1858718900000003
1130 1 3.8900505000000005 5.98258815 0.5446891800000001
1171 1 4.6526382 6.8008857 0.45282951000000005
1173 1 3.8328948000000005 6.88222815 1.323614985
1136 1 4.68685665 6.0435102 1.3023931200000003
1530 1 5.54565585 6.006489300000001 0.5293917300000001
1571 1 6.386087400000001 6.7876767000000005 0.41145678
1573 1 5.6448483000000005 6.87619485 1.2328173900000001
1536 1 6.388015200000001 6.028212750000001 1.321226655
1930 1 7.276177650000001 5.999188650000001 0.5576893350000001
1936 1 8.113539000000001 6.11146515 1.2427277100000003
1971 1 8.169962850000001 6.926924550000001 0.38912286
1973 1 7.215862500000001 6.9387591 1.24162101
2330 1 8.969178750000001 6.03595965 0.4136434050000001
2730 1 10.709053950000001 6.16073115 0.413375655
2373 1 8.943635400000002 6.9957720000000005 1.1305386750000002
2371 1 9.897914250000001 6.8718573 0.35225547
2336 1 9.7901181 6.070999200000001 1.13876931
2773 1 10.67720955 6.888779100000001 1.2129021450000002
2736 1 11.62058205 6.00165195 1.1123352450000001
2732 1 11.77737645 6.258067200000001 0.077870982
3129 1 12.559117200000001 5.48164575 0.0252971985
3131 1 13.565678700000001 5.5915482 0.8814544200000001
3132 1 13.669976250000001 6.696373950000001 0.535819515
3130 1 12.626518800000001 6.314883750000001 0.844681635
3136 1 13.583510850000001 6.411541500000001 1.632109395
3529 1 14.647370850000001 5.49514035 0.2185197
3531 1 15.557363850000002 5.6525773500000005 0.9903644100000001
3532 1 15.5474571 6.281825550000001 0.08263032750000002
3530 1 14.633572800000001 6.3974400000000005 0.8447209050000001
3536 1 15.599204250000001 6.6943926000000005 1.6594859400000002
3929 1 16.387674450000002 5.393609550000001 0.210406875
3932 1 17.227142100000002 6.3651136500000005 0.14469977550000002
3930 1 16.3391046 6.365060100000001 0.8362510800000001
3936 1 17.48594925 6.1613202000000005 1.2517026900000001
370 1 0.30618105000000007 7.98489405 0.8245521900000001
11 1 1.1319363300000003 8.843657550000001 0.74286702
376 1 1.3081997250000001 7.71660855 1.224825945
13 1 0.32674960500000005 8.914325700000001 1.5825131700000001
770 1 2.2104904500000004 7.694260350000001 0.36473083500000003
776 1 3.10745295 7.720107150000001 1.298078775
411 1 3.0680758500000005 8.475412050000001 0.28829892
409 1 1.9587340500000001 8.779843800000002 0.024383814000000004
413 1 2.1961569 8.6377935 1.12097286
1170 1 3.89142495 7.658524650000001 0.44769406500000003
1176 1 4.747368150000001 7.6848712500000005 1.24702242
811 1 4.69535325 8.513575350000002 0.29816818500000003
813 1 3.8696836500000007 8.57715705 1.172239845
1570 1 5.5638807 7.62328875 0.39481165500000004
1576 1 6.43819155 7.795219950000001 1.1608783200000001
1211 1 6.3882651 8.446994850000001 0.23891689500000002
1213 1 5.601562050000001 8.57669295 1.100436435
1970 1 7.232230950000001 7.6550796000000005 0.34612221000000004
1976 1 8.130032400000001 7.748702850000001 1.235400285
1611 1 8.138778900000002 8.547008400000001 0.294209055
1613 1 7.293813450000001 8.669852100000002 1.2141355800000002
1615 1 8.20851885 8.66647845 1.7729476800000001
2370 1 8.96421645 7.8153012 0.281253525
2376 1 9.893237550000002 7.778333850000001 1.07318841
2013 1 8.94379605 8.607430650000001 0.995860425
2769 1 10.940657700000001 7.150353000000001 0.042042283500000006
2771 1 11.787622350000001 7.3119312 0.7598727150000001
2772 1 11.94870075 8.3678658 0.34182036
2770 1 10.946601750000001 8.02002285 0.7574736750000001
2776 1 11.7339117 8.1126822 1.5083928300000002
3169 1 12.813176250000001 7.43207955 0.45061432500000004
3171 1 13.608929250000001 7.605046050000001 1.16342016
3172 1 13.6037706 8.393766150000001 0.39724461
3170 1 12.765713100000001 8.40247695 1.1230630950000002
3173 1 12.650455650000001 7.17557505 1.578155985
3569 1 14.546839650000003 7.50344385 0.49354536000000004
3571 1 15.622016550000001 7.369747350000001 0.7245225750000001
3572 1 15.361977750000001 8.3749701 0.4249656600000001
3570 1 14.49525315 8.3828241 1.144786545
3573 1 14.6618115 7.310931600000001 1.5807781500000002
3576 1 15.6189999 8.28480975 1.5486927750000001
3969 1 16.488491250000003 7.26553905 0.075048183
3971 1 17.265930150000003 7.215684 0.8897689500000001
3972 1 17.34457725 8.00128035 0.0409245165
3970 1 16.48488555 8.1736578 0.763503405
3611 1 17.353966350000004 8.863970850000001 0.7413711900000001
3973 1 16.4640546 7.33704615 1.6394082600000002
3976 1 17.3358129 8.1052566 1.638581805
10 1 0.303873045 9.719949750000001 0.7302916950000001
51 1 1.1430568800000003 10.55197395 0.57984297
53 1 0.31912408500000006 10.657360350000001 1.4382994500000001
16 1 1.142765925 9.791581800000001 1.4741422500000003
416 1 3.1211260500000004 9.4111983 0.9533649300000001
410 1 1.9850271000000002 9.731284500000001 0.67492635
451 1 2.83095645 10.558150050000002 0.589280265
414 1 2.30206095 9.601068750000001 1.7131876650000002
455 1 3.0562948500000005 10.4317185 1.7218467000000002
453 1 1.9503802500000003 10.65971655 1.3903008000000001
810 1 3.8762346 9.3483306 0.11795119350000001
816 1 4.622775150000001 9.4463271 1.01600415
851 1 4.74640425 10.144779750000001 0.056027401500000004
853 1 3.9239655000000004 10.2567885 0.8681490300000001
1210 1 5.5034406 9.355113600000001 0.275773575
1216 1 6.394423350000001 9.4118052 1.0073112000000002
1251 1 6.3382494000000005 10.1501169 0.21182773500000002
1253 1 5.51995185 10.225925850000001 1.00925685
1255 1 6.375109650000001 10.336078200000001 1.7459406300000002
1610 1 7.188855450000001 9.477582450000002 0.20273316000000002
1616 1 8.15586135 9.485793450000001 1.0036055400000001
1651 1 8.357744850000001 10.522789200000002 0.5605060650000001
1653 1 7.282300200000001 10.254825 0.9346688400000002
1655 1 8.12715855 10.29186375 1.76320158
2011 1 10.062080700000001 8.9461344 0.744889425
2010 1 9.220239000000001 9.7637715 0.68007072
2012 1 10.289828850000001 9.980006400000002 0.268612155
2053 1 9.1772205 10.603346250000001 1.3602735300000002
2014 1 8.9528103 9.51131895 1.784773305
2016 1 10.076896200000002 9.76011225 1.424231865
2409 1 11.11039335 9.163404600000002 0.37348269000000006
2411 1 11.925567150000001 9.1739718 1.078363125
2412 1 12.06422595 10.03728705 0.28844172
2410 1 11.1636042 10.0486575 1.104959625
2413 1 10.85106855 8.951846399999999 1.4634161850000003
2809 1 12.87468735 9.2384817 0.33202249500000003
2811 1 13.633562250000002 9.313059 1.1322790500000002
2812 1 13.72399035 10.0733976 0.29092644000000006
2810 1 12.871313700000002 10.096816800000001 1.0819224150000002
3209 1 14.563350900000001 9.282481950000001 0.329705565
3211 1 15.353374050000001 9.217008150000002 1.0969324800000002
3212 1 15.385272000000002 10.005210600000002 0.29425368
3210 1 14.5147632 10.212109950000002 1.085781585
3609 1 16.26915045 9.173882550000002 0.40225510500000006
3612 1 17.106850950000002 9.99823125 0.36269415000000005
3610 1 16.218634950000002 10.06888155 1.067089065
3613 1 16.5014325 9.10583835 1.5432021150000002
3616 1 17.31548175 9.900734550000001 1.46813037
56 1 1.096994955 11.50055865 1.2932449950000002
49 1 0.0819381045 10.8904992 0.29514082500000005
52 1 0.887585895 11.7061728 0.26133114
50 1 0.024082863 11.741212350000001 1.01821398
450 1 1.9963083000000004 11.345210100000001 0.46836793500000007
491 1 2.8247268 12.131145600000002 0.4334765400000001
489 1 1.8129709500000002 12.4781853 0.014742136500000001
493 1 1.9791009000000002 12.246599400000001 1.1314026150000003
456 1 2.7900264000000004 11.47492605 1.3295947350000001
850 1 3.7298467500000005 11.34340725 0.46015693500000004
856 1 4.7811046500000005 11.027194500000002 0.8492994300000001
891 1 4.5659050500000005 12.13066365 0.260454705
893 1 3.71678055 12.269072550000002 1.06373505
854 1 3.9350146500000003 11.128707450000002 1.6865501100000002
895 1 4.677735300000001 11.9631057 1.4632448250000003
1250 1 5.49467625 10.9340889 0.06174743400000001
1256 1 6.40595445 11.032638750000002 0.87190467
1293 1 5.559739500000001 11.7994926 0.8267049000000001
1291 1 6.55021815 12.12845025 0.31064890500000003
1254 1 5.4859476 11.10054015 1.7046071700000003
1295 1 6.42687465 11.959714200000002 1.5025005450000002
1650 1 7.39423755 11.39456535 0.53372571
1656 1 8.253607950000001 11.375751450000001 1.2085717350000003
1652 1 8.444763600000002 11.66631375 0.116391639
1693 1 7.452464250000001 12.2427081 1.1991040950000003
1654 1 7.204242150000001 11.113017300000001 1.6423017450000001
2049 1 9.429798 10.831683450000002 0.271807305
2051 1 10.28786535 10.839608850000001 0.98139657
2052 1 10.24784565 11.67352515 0.18541152
2089 1 9.437062950000001 12.47063475 0.15696647400000002
2050 1 9.329713050000002 11.704709100000002 0.9734622450000001
2056 1 10.2546108 11.826071250000002 1.781928015
2449 1 11.148592350000001 10.8611538 0.308553315
2451 1 12.0108723 10.88144925 1.06818327
2452 1 12.0051603 11.7379101 0.18970266
2450 1 11.148467400000001 11.74156935 0.923664315
2453 1 11.097630600000002 11.0157705 1.73659794
2456 1 11.94855795 11.850204450000001 1.7637406500000001
2849 1 12.86797575 10.909348800000002 0.21357882000000003
2851 1 13.6299387 11.0776029 1.02615366
2852 1 13.736378250000001 11.806846800000002 0.19535397000000002
2850 1 12.761339850000002 11.801884500000002 0.9454788000000001
2856 1 13.5718548 11.956661850000001 1.7644118100000004
3249 1 14.580129900000001 10.898388900000002 0.16787228850000002
3251 1 15.408405600000002 10.9117764 0.98392413
3252 1 15.39935565 11.760472500000002 0.18702159000000002
3250 1 14.546679000000001 11.834960550000002 0.9057197100000001
3253 1 14.554211700000002 11.17861605 1.739634225
3256 1 15.4315392 11.884690650000001 1.7523630600000002
3649 1 16.223561550000003 10.7937522 0.22232175000000004
3651 1 17.048642100000002 10.896586050000002 1.031738925
3652 1 17.065278300000003 11.67627405 0.16758579600000004
3650 1 16.224186300000003 11.80500825 0.9801363600000002
3653 1 16.22252625 11.021036250000002 1.75912464
3656 1 16.988291250000003 11.830355250000002 1.76890287
91 1 0.89597718 12.571290900000001 0.9453877650000001
89 1 0.089843334 12.615094800000001 0.19721929500000002
92 1 1.05569541 13.44199605 0.007448269500000001
90 1 0.12498623550000001 13.530460650000002 0.76259127
131 1 0.9949233000000002 14.270878650000002 0.7572969600000001
96 1 0.890920275 13.554415350000001 1.6153893000000001
496 1 2.8112679000000003 13.01470275 1.03938051
490 1 1.8094902000000002 13.448868300000003 0.8488406850000001
492 1 2.6233252500000006 13.36741875 0.018188436000000002
529 1 1.8339982500000003 14.252011200000002 0.038708439000000004
890 1 3.67033485 12.91567095 0.198508065
896 1 4.57440165 13.02194985 1.0180087050000002
931 1 4.65183495 14.0380611 0.50351637
933 1 3.61532115 13.73798475 0.94898811
935 1 4.49736105 13.96667895 1.67094564
1290 1 5.538373050000001 12.8347569 0.44192137500000006
1296 1 6.5807238 12.96536535 1.060281075
1331 1 6.4832449500000005 14.15446095 0.604399215
1333 1 5.496015000000001 13.82123715 1.1463466350000002
1294 1 5.5850508 12.726336000000002 1.53987309
1335 1 6.5017554 13.892619300000002 1.7147120550000001
1689 1 7.740866700000001 12.498980550000002 0.01744714335
1691 1 8.556736650000001 12.640441800000001 0.7913726100000001
1690 1 7.712092500000001 13.44171045 0.721091805
1731 1 8.54010045 14.2398375 0.65150001
1696 1 8.549168250000001 13.4869245 1.5843838500000003
2091 1 10.3240473 12.6177723 0.8726079600000001
2092 1 10.32413655 13.421575650000001 0.09804772950000001
2090 1 9.487185750000002 13.463505300000001 0.8252769
2093 1 9.515460150000001 12.71071725 1.6873622850000003
2096 1 10.326457050000002 13.585313700000002 1.6285161900000003
2489 1 11.134687200000002 12.579002100000002 0.09966440400000001
2492 1 11.952913350000001 13.503578550000002 0.04494273000000001
2491 1 11.941275150000001 12.6636468 0.86275119
2490 1 11.1713511 13.42339635 0.82659066
2493 1 11.022392850000001 12.6798546 1.6146056850000001
2496 1 11.99100525 13.480552050000002 1.64319246
2889 1 12.7886682 12.56413305 0.101796051
2892 1 13.575282000000001 13.469984850000001 0.0284273745
2891 1 13.612320750000002 12.656685300000001 0.8975818950000001
2890 1 12.82235115 13.49822355 0.798671475
2893 1 12.7934877 12.7569666 1.6478423850000001
2896 1 13.639559850000001 13.565178900000001 1.54379295
3289 1 14.55472935 12.636318450000001 0.11265759750000001
3291 1 15.417598350000002 12.664575000000001 0.9153069450000001
3292 1 15.316353150000001 13.448029350000002 0.07083968850000001
3290 1 14.493967950000002 13.50532785 0.7903551600000001
3293 1 14.61731145 12.8294019 1.59638619
3296 1 15.4235067 13.643486850000002 1.622773845
3689 1 16.232325900000003 12.656471100000001 0.11504574900000002
3691 1 17.0782017 12.603385200000002 0.8710924950000001
3692 1 17.0866626 13.424895750000001 0.077735679
3690 1 16.30028085 13.509629700000001 0.827559915
93 1 17.832578400000003 12.62560845 1.6882280100000002
3693 1 16.27393425 12.7083075 1.62431787
3696 1 17.143836150000002 13.554843750000002 1.5612859500000003
530 1 1.7580964800000003 15.225139650000001 0.743864835
130 1 0.17143015050000002 15.231654900000002 0.69120912
171 1 0.9376265850000001 16.013038650000002 0.7219039800000001
133 1 0.1527858255 14.398524000000002 1.4934648750000001
136 1 0.8755549950000001 15.236706450000002 1.528325925
531 1 2.6238786 14.31164805 0.84923517
532 1 2.73192465 15.45258435 0.37740255
533 1 1.7860353 14.369446350000002 1.5277404450000003
536 1 2.6667007500000004 15.3644589 1.5192599100000002
930 1 3.6943074000000005 14.79206295 0.559784925
932 1 4.6680606000000004 15.066167550000001 0.013263513900000003
969 1 3.66380175 16.0302996 0.284359425
971 1 4.67036325 16.0315848 0.74691183
934 1 3.6056821500000007 14.695208850000002 1.744128855
936 1 4.6306648500000005 15.03478725 1.20069096
973 1 3.7338273 15.70169895 1.33247394
1332 1 6.635916 15.1239837 0.10305304800000002
1330 1 5.5930476 14.8149645 0.588502005
1369 1 5.6703381 15.874772550000001 0.07869440250000001
1373 1 5.6668752 15.79198425 1.4161386750000002
1336 1 6.5804739 14.995820700000001 1.3639881150000002
1729 1 7.5139575 14.426851950000001 0.208232745
1733 1 7.48780725 14.2825704 1.3803190800000003
1736 1 8.51793075 15.088515750000001 1.4101071600000001
1732 1 8.3034987 15.316406700000002 0.24130701000000002
1769 1 7.387758000000001 15.97655325 0.0463759065
1730 1 7.523578650000001 15.319244850000002 0.94166961
2131 1 10.29679035 14.366697450000002 0.78437541
2130 1 9.4300122 15.1054554 0.6780126150000001
2171 1 10.28479515 15.94959975 0.564657975
2133 1 9.37483785 14.307149850000002 1.5737166900000001
2136 1 10.2557889 15.191010450000002 1.5072075900000002
2531 1 11.991130200000002 14.358914850000001 0.7843932600000001
2530 1 11.116623 15.20336265 0.610889475
2533 1 11.129742750000002 14.371374150000001 1.512782145
2571 1 12.039432300000001 16.024302000000002 0.580680135
2536 1 12.0345771 15.270532200000002 1.45472145
2573 1 11.051184900000003 15.977659950000001 1.351368165
2931 1 13.7868402 14.378139300000003 0.700200165
2930 1 12.930611400000002 15.225853650000001 0.68824602
2971 1 13.739876850000002 16.00582725 0.55308939
2933 1 12.893287050000001 14.426227200000001 1.552123545
2936 1 13.712227200000001 15.265284300000001 1.4293173300000002
3331 1 15.5107575 14.40996585 0.7137144000000001
3330 1 14.610421350000001 15.11900355 0.6977350800000001
3336 1 15.463651350000003 15.315532050000002 1.435484505
3333 1 14.6292174 14.427262500000001 1.54071204
3731 1 17.27067825 14.3480442 0.68407626
3730 1 16.3267881 15.220855650000003 0.628282515
3771 1 17.17589475 15.995652750000001 0.597187815
3733 1 16.256709 14.4088413 1.517540955
3736 1 17.1048696 15.246166950000001 1.470120645
170 1 0.13938047550000002 16.850935500000002 0.5716284
172 1 1.18173069 17.0637432 0.16983775200000004
176 1 0.9114245700000001 16.932028050000003 1.4081882850000003
213 1 0.128136582 17.82245745 1.2818459850000001
573 1 1.77712815 16.1700294 1.47204309
173 1 0.09100197750000001 16.1359716 1.396857105
569 1 1.9591803 16.246891500000004 0.23275864500000001
571 1 2.7840645000000004 16.337783700000003 1.046126025
572 1 2.8660138500000003 17.03334465 0.18217353
570 1 1.9640355000000003 17.11770375 0.9101001
972 1 4.65508365 17.040573900000002 0.31376551500000005
1009 1 3.8433013500000004 17.761928100000002 0.219870945
970 1 3.7273477500000003 16.98939795 0.9995821500000001
976 1 4.766574750000001 16.863966 1.449179025
1371 1 6.640592700000001 16.15719525 0.9202460400000001
1409 1 5.5778751 17.8183341 0.36203013
1411 1 6.647143650000001 17.70743205 0.6819431850000001
1370 1 5.744397750000001 16.779 0.7705202400000001
1376 1 6.6358089 16.975707 1.6664599350000002
1772 1 8.2158552 16.95052065 0.0637011165
1771 1 8.2872552 16.1762769 0.9448379850000002
1770 1 7.478614500000001 16.95173445 0.808699605
1811 1 8.331309000000001 17.83473825 0.7567329
1773 1 7.470778350000001 16.18661205 1.647231915
1776 1 8.268905400000001 17.0920533 1.5733079250000002
2169 1 9.14942805 16.12427985 0.19210705500000003
2173 1 9.402237600000001 16.066981350000002 1.32187461
2176 1 10.2879546 16.8921333 1.2794487300000001
2172 1 9.98886 16.9932714 0.08574033300000002
2170 1 9.16420785 17.041876950000002 0.8769669300000001
2570 1 11.163747 16.707492900000002 0.53174436
2576 1 11.920979700000002 16.854987450000003 1.33942116
2611 1 11.942471100000002 17.613790950000002 0.43043133000000006
2613 1 11.1288681 17.7119481 1.1762239650000001
2970 1 12.925899000000001 16.86962445 0.55783749
2973 1 12.94158915 16.088080050000002 1.3652447550000002
2976 1 13.758904950000002 16.8875637 1.262200275
3011 1 13.716243450000002 17.71385805 0.40256391
3013 1 12.794897850000002 17.710288050000003 1.1741730000000001
3370 1 14.611974300000002 16.85616555 0.4953964050000001
3371 1 15.408566250000002 16.066071 0.5587335600000001
3373 1 14.644639800000002 16.088633400000003 1.36940916
3411 1 15.41520645 17.666109300000002 0.43497594
3376 1 15.440107200000002 16.892615250000002 1.3031321100000002
3413 1 14.5576389 17.73417135 1.1978956500000002
3770 1 16.282288050000002 16.83431715 0.6094025700000001
3776 1 17.1697722 16.949449650000002 1.370021415
3811 1 17.1510654 17.6143086 0.48443829000000005
3813 1 16.3147215 17.7732093 1.2682906950000001
3773 1 16.2976926 16.077816300000002 1.3448154300000001
220 1 0.9592947000000001 0.9370607400000001 2.75927085
215 1 0.9900734550000001 0.05082162750000001 2.0590332
214 1 0.100390542 0.827242185 2.07415215
617 1 1.716275715 0.096109755 2.85944505
217 1 0.07969257450000002 0.025910881500000003 2.9428938
218 1 0.0553059045 1.1176652550000001 3.4795719000000003
614 1 2.071314 1.127789775 2.5242577500000003
615 1 2.8046634000000004 0.35801388 2.6215224
620 1 2.88304275 1.271653635 3.30962205
1014 1 3.7584067500000002 1.063376265 2.4930024000000004
1020 1 4.77167985 0.9779015400000001 2.9014996500000003
1018 1 3.7250094000000002 0.62458221 3.5666977500000003
1455 1 6.48413745 1.7048749200000002 2.1434637
1414 1 5.710232850000001 0.8443978200000001 2.3578600499999998
1457 1 5.7438265500000005 1.7259593400000002 3.13872615
1420 1 6.5549662500000005 0.9723162750000001 3.096975
1415 1 6.566854350000001 0.09616062750000001 2.3892760500000003
1855 1 8.25143025 1.7650294200000003 2.17561155
1814 1 7.472349150000001 0.9890149500000001 2.3322453000000003
1820 1 8.32375845 1.057657125 3.16093155
1815 1 8.27224335 0.171418905 2.3803510500000002
1817 1 7.511637000000001 0.19866336 3.2075379
2214 1 9.07494 1.0201792650000001 2.3527371
2220 1 10.24156245 0.8326275300000001 2.63824785
2218 1 9.449129550000002 0.7852929000000001 3.4754307
2259 1 10.224729900000002 1.714940535 3.3663672000000004
2655 1 12.01053315 1.6045918350000001 1.8034390500000002
2657 1 11.137400400000002 1.6390405500000003 2.53139775
2614 1 11.127957750000002 0.7847395500000001 1.87876605
2617 1 11.059163850000001 0.037794876000000005 2.7419028
2620 1 12.034969800000002 0.8830519950000001 2.61493575
2618 1 11.12895735 0.8927606100000001 3.4164186000000005
2659 1 11.938597650000002 1.7282637750000003 3.3451614
2619 1 12.0380757 0.17736813150000003 3.4822672500000005
3055 1 13.732254900000003 1.6681503300000002 1.8305175000000002
3057 1 12.8955183 1.7667269550000002 2.5361101500000003
3015 1 13.66501395 0.010554330150000001 1.9082185500000002
3017 1 12.8646378 0.027863850000000003 2.7928824
3014 1 12.907102950000002 0.7923293700000001 1.86887715
3020 1 13.7031237 0.9008056050000001 2.65120695
3018 1 12.8191203 0.989777145 3.44239035
3059 1 13.720527450000002 1.7657791200000001 3.3496953
3019 1 13.704944400000002 0.20938407 3.5367097500000004
3455 1 15.4369299 1.57489122 1.8225207
3457 1 14.654278800000002 1.70473212 2.6051361
3420 1 15.494567550000001 0.956404785 2.7163237500000004
3415 1 15.44976405 0.035106309 2.05930095
3414 1 14.486756550000003 0.8920091250000002 1.92749655
3417 1 14.6585271 0.10211538750000002 2.82270975
3418 1 14.6350722 0.9994286400000001 3.50615055
3855 1 17.0875551 1.74504813 1.9175719500000001
3820 1 17.03270205 0.9163190400000001 2.75973495
3814 1 16.29039195 0.931671825 1.9419907500000002
3815 1 17.168362050000002 0.11621599500000002 2.0068755
3817 1 16.311865500000003 0.010297450800000002 2.77130175
3818 1 16.31755965 1.018119375 3.5120053500000004
255 1 1.2376011900000001 2.0171928 2.4218166
257 1 0.11833014900000001 1.8280542000000002 2.6504394000000002
254 1 0.33719364000000007 2.83720395 2.2942605000000005
259 1 0.8730792 1.9194105000000001 3.5193595500000003
260 1 1.2179340600000002 2.9714895000000006 3.0993847500000005
258 1 0.10750501650000001 2.7067740000000002 3.3935349000000006
655 1 2.89832235 1.9290316500000002 2.4470207999999998
654 1 2.0676726 2.7736758000000004 2.3569854
657 1 2.0145688500000003 1.99314885 3.2097513
660 1 2.8679238000000002 2.819229 3.1357273500000002